
     Program PWSCF v.7.2 starts on 26Jul2023 at 12:12:44 

     This program is part of the open-source Quantum ESPRESSO suite
     for quantum simulation of materials; please cite
         "P. Giannozzi et al., J. Phys.:Condens. Matter 21 395502 (2009);
         "P. Giannozzi et al., J. Phys.:Condens. Matter 29 465901 (2017);
         "P. Giannozzi et al., J. Chem. Phys. 152 154105 (2020);
          URL http://www.quantum-espresso.org", 
     in publications or presentations arising from this work. More details at
     http://www.quantum-espresso.org/quote

     Parallel version (MPI), running on    20 processors

     MPI processes distributed on     1 nodes
     317762 MiB available memory on the printing compute node when the environment starts

     Waiting for input...
     Reading input from standard input

     Current dimensions of program PWSCF are:
     Max number of different atomic species (ntypx) = 10
     Max number of k-points (npk) = 120000
     Max angular momentum in pseudopotentials (lmaxx) =  4
     file Sc.pz-spn-kjpaw_psl.1.0.0.UPF: wavefunction(s)  3S 3P 3D renormalized

     R & G space division:  proc/nbgrp/npool/nimage =      20
     Subspace diagonalization in iterative solution of the eigenvalue problem:
     a serial algorithm will be used


     Parallelization info
     --------------------
     sticks:   dense  smooth     PW     G-vecs:    dense   smooth      PW
     Min          32      32      9                 1056     1056     169
     Max          33      33     10                 1063     1063     176
     Sum         649     649    199                21181    21181    3489

     Using Slab Decomposition



     bravais-lattice index     =            4
     lattice parameter (alat)  =       6.2531  a.u.
     unit-cell volume          =     337.5249 (a.u.)^3
     number of atoms/cell      =            2
     number of atomic types    =            1
     number of electrons       =        22.00
     number of Kohn-Sham states=           15
     kinetic-energy cutoff     =      60.0000  Ry
     charge density cutoff     =     240.0000  Ry
     scf convergence threshold =      1.0E-08
     mixing beta               =       0.7000
     number of iterations used =            8  plain     mixing
     Exchange-correlation= SLA  PZ   NOGX NOGC
                           (   1   1   0   0   0   0   0)

     celldm(1)=   6.253104  celldm(2)=   0.000000  celldm(3)=   1.594000
     celldm(4)=   0.000000  celldm(5)=   0.000000  celldm(6)=   0.000000

     crystal axes: (cart. coord. in units of alat)
               a(1) = (   1.000000   0.000000   0.000000 )  
               a(2) = (  -0.500000   0.866025   0.000000 )  
               a(3) = (   0.000000   0.000000   1.594000 )  

     reciprocal axes: (cart. coord. in units 2 pi/alat)
               b(1) = (  1.000000  0.577350 -0.000000 )  
               b(2) = (  0.000000  1.154701  0.000000 )  
               b(3) = (  0.000000 -0.000000  0.627353 )  


     PseudoPot. # 1 for Sc read from file:
     ../../Sc.pz-spn-kjpaw_psl.1.0.0.UPF
     MD5 check sum: 1f9095df0bb42a6568b4e9f256ff075f
     Pseudo is Projector augmented-wave + core cor, Zval = 11.0
     Generated using 'atomic' code by A. Dal Corso  v.7.1
     Shape of augmentation charge: PSQ
     Using radial grid of 1173 points,  6 beta functions with: 
                l(1) =   0
                l(2) =   0
                l(3) =   1
                l(4) =   1
                l(5) =   2
                l(6) =   2
     Q(r) pseudized with 0 coefficients 


     atomic species   valence    mass     pseudopotential
        Sc            11.00    44.59600     Sc( 1.00)

     24 Sym. Ops., with inversion, found (12 have fractional translation)



   Cartesian axes

     site n.     atom                  positions (alat units)
         1           Sc  tau(   1) = (   0.0000000   0.0000000   0.0000000  )
         2           Sc  tau(   2) = (   0.5000000   0.2886751   0.7970000  )

     number of k points=    95  Marzari-Vanderbilt smearing, width (Ry)=  0.0200
                       cart. coord. in units 2pi/alat
        k(    1) = (   0.0000000   0.0000000   0.0000000), wk =   0.0017361
        k(    2) = (   0.0000000   0.0000000   0.0784191), wk =   0.0034722
        k(    3) = (   0.0000000   0.0000000   0.1568381), wk =   0.0034722
        k(    4) = (   0.0000000   0.0000000   0.2352572), wk =   0.0034722
        k(    5) = (   0.0000000   0.0000000  -0.3136763), wk =   0.0017361
        k(    6) = (   0.0000000   0.0962250   0.0000000), wk =   0.0104167
        k(    7) = (   0.0000000   0.0962250   0.0784191), wk =   0.0208333
        k(    8) = (   0.0000000   0.0962250   0.1568381), wk =   0.0208333
        k(    9) = (   0.0000000   0.0962250   0.2352572), wk =   0.0208333
        k(   10) = (   0.0000000   0.0962250  -0.3136763), wk =   0.0104167
        k(   11) = (   0.0000000   0.1924501   0.0000000), wk =   0.0104167
        k(   12) = (   0.0000000   0.1924501   0.0784191), wk =   0.0208333
        k(   13) = (   0.0000000   0.1924501   0.1568381), wk =   0.0208333
        k(   14) = (   0.0000000   0.1924501   0.2352572), wk =   0.0208333
        k(   15) = (   0.0000000   0.1924501  -0.3136763), wk =   0.0104167
        k(   16) = (   0.0000000   0.2886751   0.0000000), wk =   0.0104167
        k(   17) = (   0.0000000   0.2886751   0.0784191), wk =   0.0208333
        k(   18) = (   0.0000000   0.2886751   0.1568381), wk =   0.0208333
        k(   19) = (   0.0000000   0.2886751   0.2352572), wk =   0.0208333
        k(   20) = (   0.0000000   0.2886751  -0.3136763), wk =   0.0104167
        k(   21) = (   0.0000000   0.3849002   0.0000000), wk =   0.0104167
        k(   22) = (   0.0000000   0.3849002   0.0784191), wk =   0.0208333
        k(   23) = (   0.0000000   0.3849002   0.1568381), wk =   0.0208333
        k(   24) = (   0.0000000   0.3849002   0.2352572), wk =   0.0208333
        k(   25) = (   0.0000000   0.3849002  -0.3136763), wk =   0.0104167
        k(   26) = (   0.0000000   0.4811252   0.0000000), wk =   0.0104167
        k(   27) = (   0.0000000   0.4811252   0.0784191), wk =   0.0208333
        k(   28) = (   0.0000000   0.4811252   0.1568381), wk =   0.0208333
        k(   29) = (   0.0000000   0.4811252   0.2352572), wk =   0.0208333
        k(   30) = (   0.0000000   0.4811252  -0.3136763), wk =   0.0104167
        k(   31) = (   0.0000000  -0.5773503   0.0000000), wk =   0.0052083
        k(   32) = (   0.0000000  -0.5773503   0.0784191), wk =   0.0104167
        k(   33) = (   0.0000000  -0.5773503   0.1568381), wk =   0.0104167
        k(   34) = (   0.0000000  -0.5773503   0.2352572), wk =   0.0104167
        k(   35) = (   0.0000000  -0.5773503  -0.3136763), wk =   0.0052083
        k(   36) = (   0.0833333   0.1443376   0.0000000), wk =   0.0104167
        k(   37) = (   0.0833333   0.1443376   0.0784191), wk =   0.0208333
        k(   38) = (   0.0833333   0.1443376   0.1568381), wk =   0.0208333
        k(   39) = (   0.0833333   0.1443376   0.2352572), wk =   0.0208333
        k(   40) = (   0.0833333   0.1443376  -0.3136763), wk =   0.0104167
        k(   41) = (   0.0833333   0.2405626   0.0000000), wk =   0.0208333
        k(   42) = (   0.0833333   0.2405626   0.0784191), wk =   0.0416667
        k(   43) = (   0.0833333   0.2405626   0.1568381), wk =   0.0416667
        k(   44) = (   0.0833333   0.2405626   0.2352572), wk =   0.0416667
        k(   45) = (   0.0833333   0.2405626  -0.3136763), wk =   0.0208333
        k(   46) = (   0.0833333   0.3367877   0.0000000), wk =   0.0208333
        k(   47) = (   0.0833333   0.3367877   0.0784191), wk =   0.0416667
        k(   48) = (   0.0833333   0.3367877   0.1568381), wk =   0.0416667
        k(   49) = (   0.0833333   0.3367877   0.2352572), wk =   0.0416667
        k(   50) = (   0.0833333   0.3367877  -0.3136763), wk =   0.0208333
        k(   51) = (   0.0833333   0.4330127   0.0000000), wk =   0.0208333
        k(   52) = (   0.0833333   0.4330127   0.0784191), wk =   0.0416667
        k(   53) = (   0.0833333   0.4330127   0.1568381), wk =   0.0416667
        k(   54) = (   0.0833333   0.4330127   0.2352572), wk =   0.0416667
        k(   55) = (   0.0833333   0.4330127  -0.3136763), wk =   0.0208333
        k(   56) = (   0.0833333   0.5292377   0.0000000), wk =   0.0208333
        k(   57) = (   0.0833333   0.5292377   0.0784191), wk =   0.0416667
        k(   58) = (   0.0833333   0.5292377   0.1568381), wk =   0.0416667
        k(   59) = (   0.0833333   0.5292377   0.2352572), wk =   0.0416667
        k(   60) = (   0.0833333   0.5292377  -0.3136763), wk =   0.0208333
        k(   61) = (   0.1666667   0.2886751   0.0000000), wk =   0.0104167
        k(   62) = (   0.1666667   0.2886751   0.0784191), wk =   0.0208333
        k(   63) = (   0.1666667   0.2886751   0.1568381), wk =   0.0208333
        k(   64) = (   0.1666667   0.2886751   0.2352572), wk =   0.0208333
        k(   65) = (   0.1666667   0.2886751  -0.3136763), wk =   0.0104167
        k(   66) = (   0.1666667   0.3849002   0.0000000), wk =   0.0208333
        k(   67) = (   0.1666667   0.3849002   0.0784191), wk =   0.0416667
        k(   68) = (   0.1666667   0.3849002   0.1568381), wk =   0.0416667
        k(   69) = (   0.1666667   0.3849002   0.2352572), wk =   0.0416667
        k(   70) = (   0.1666667   0.3849002  -0.3136763), wk =   0.0208333
        k(   71) = (   0.1666667   0.4811252   0.0000000), wk =   0.0208333
        k(   72) = (   0.1666667   0.4811252   0.0784191), wk =   0.0416667
        k(   73) = (   0.1666667   0.4811252   0.1568381), wk =   0.0416667
        k(   74) = (   0.1666667   0.4811252   0.2352572), wk =   0.0416667
        k(   75) = (   0.1666667   0.4811252  -0.3136763), wk =   0.0208333
        k(   76) = (   0.1666667   0.5773503   0.0000000), wk =   0.0104167
        k(   77) = (   0.1666667   0.5773503   0.0784191), wk =   0.0208333
        k(   78) = (   0.1666667   0.5773503   0.1568381), wk =   0.0208333
        k(   79) = (   0.1666667   0.5773503   0.2352572), wk =   0.0208333
        k(   80) = (   0.1666667   0.5773503  -0.3136763), wk =   0.0104167
        k(   81) = (   0.2500000   0.4330127   0.0000000), wk =   0.0104167
        k(   82) = (   0.2500000   0.4330127   0.0784191), wk =   0.0208333
        k(   83) = (   0.2500000   0.4330127   0.1568381), wk =   0.0208333
        k(   84) = (   0.2500000   0.4330127   0.2352572), wk =   0.0208333
        k(   85) = (   0.2500000   0.4330127  -0.3136763), wk =   0.0104167
        k(   86) = (   0.2500000   0.5292377   0.0000000), wk =   0.0208333
        k(   87) = (   0.2500000   0.5292377   0.0784191), wk =   0.0416667
        k(   88) = (   0.2500000   0.5292377   0.1568381), wk =   0.0416667
        k(   89) = (   0.2500000   0.5292377   0.2352572), wk =   0.0416667
        k(   90) = (   0.2500000   0.5292377  -0.3136763), wk =   0.0208333
        k(   91) = (   0.3333333   0.5773503   0.0000000), wk =   0.0034722
        k(   92) = (   0.3333333   0.5773503   0.0784191), wk =   0.0069444
        k(   93) = (   0.3333333   0.5773503   0.1568381), wk =   0.0069444
        k(   94) = (   0.3333333   0.5773503   0.2352572), wk =   0.0069444
        k(   95) = (   0.3333333   0.5773503  -0.3136763), wk =   0.0034722

     Dense  grid:    21181 G-vectors     FFT dimensions: (  36,  36,  50)

     Estimated max dynamical RAM per process >       7.96 MB

     Estimated total dynamical RAM >     159.18 MB

     Check: negative core charge=   -0.000032

     Initial potential from superposition of free atoms

     starting charge      21.9956, renormalised to      22.0000
     Starting wfcs are   20 randomized atomic wfcs
     Checking if some PAW data can be deallocated... 

     total cpu time spent up to now is        0.9 secs

     Self-consistent Calculation

     iteration #  1     ecut=    60.00 Ry     beta= 0.70
     Davidson diagonalization with overlap
     ethr =  1.00E-02,  avg # of iterations =  2.5

     Threshold (ethr) on eigenvalues was too large:
     Diagonalizing with lowered threshold

     Davidson diagonalization with overlap
     c_bands:  1 eigenvalues not converged
     c_bands:  3 eigenvalues not converged
     c_bands:  2 eigenvalues not converged
     c_bands:  1 eigenvalues not converged
     c_bands:  1 eigenvalues not converged
     c_bands:  2 eigenvalues not converged
     c_bands:  2 eigenvalues not converged
     c_bands:  3 eigenvalues not converged
     c_bands:  2 eigenvalues not converged
     c_bands:  1 eigenvalues not converged
     c_bands:  1 eigenvalues not converged
     ethr =  3.35E-05,  avg # of iterations = 15.2

     total cpu time spent up to now is        5.9 secs

     total energy              =    -306.86339997 Ry
     estimated scf accuracy    <       0.02013044 Ry

     iteration #  2     ecut=    60.00 Ry     beta= 0.70
     Davidson diagonalization with overlap
     ethr =  9.15E-05,  avg # of iterations =  4.2

     total cpu time spent up to now is        7.4 secs

     total energy              =    -306.86851162 Ry
     estimated scf accuracy    <       0.00178709 Ry

     iteration #  3     ecut=    60.00 Ry     beta= 0.70
     Davidson diagonalization with overlap
     c_bands:  1 eigenvalues not converged
     ethr =  8.12E-06,  avg # of iterations =  7.6

     total cpu time spent up to now is        9.4 secs

     total energy              =    -306.86943132 Ry
     estimated scf accuracy    <       0.00017220 Ry

     iteration #  4     ecut=    60.00 Ry     beta= 0.70
     Davidson diagonalization with overlap
     c_bands:  1 eigenvalues not converged
     ethr =  7.83E-07,  avg # of iterations =  9.0

     total cpu time spent up to now is       11.6 secs

     total energy              =    -306.86958411 Ry
     estimated scf accuracy    <       0.00007649 Ry

     iteration #  5     ecut=    60.00 Ry     beta= 0.70
     Davidson diagonalization with overlap
     ethr =  3.48E-07,  avg # of iterations =  6.9

     total cpu time spent up to now is       13.4 secs

     total energy              =    -306.86963261 Ry
     estimated scf accuracy    <       0.00003536 Ry

     iteration #  6     ecut=    60.00 Ry     beta= 0.70
     Davidson diagonalization with overlap
     ethr =  1.61E-07,  avg # of iterations =  2.3

     total cpu time spent up to now is       14.5 secs

     total energy              =    -306.86962191 Ry
     estimated scf accuracy    <       0.00001728 Ry

     iteration #  7     ecut=    60.00 Ry     beta= 0.70
     Davidson diagonalization with overlap
     ethr =  7.85E-08,  avg # of iterations =  6.7

     total cpu time spent up to now is       16.3 secs

     total energy              =    -306.86963063 Ry
     estimated scf accuracy    <       0.00000058 Ry

     iteration #  8     ecut=    60.00 Ry     beta= 0.70
     Davidson diagonalization with overlap
     c_bands:  1 eigenvalues not converged
     c_bands:  1 eigenvalues not converged
     c_bands:  1 eigenvalues not converged
     ethr =  2.62E-09,  avg # of iterations = 13.5

     total cpu time spent up to now is       19.2 secs

     End of self-consistent calculation

          k = 0.0000 0.0000 0.0000 (  2671 PWs)   bands (ev):

   -40.1405 -40.0761 -19.2242 -18.8910 -18.8910 -18.8327 -18.8327 -18.8156
     3.7530   7.1443   9.3013  10.3561  10.3561  10.4662  10.7594

          k = 0.0000 0.0000 0.0784 (  2677 PWs)   bands (ev):

   -40.1380 -40.0786 -19.2093 -18.8888 -18.8888 -18.8349 -18.8349 -18.8317
     3.8542   6.9898   9.2719  10.3134  10.3135  10.4010  10.7040

          k = 0.0000 0.0000 0.1568 (  2689 PWs)   bands (ev):

   -40.1311 -40.0856 -19.1662 -18.8825 -18.8825 -18.8774 -18.8413 -18.8413
     4.1512   6.5435   9.2808  10.2180  10.2509  10.2509  10.5690

          k = 0.0000 0.0000 0.2353 (  2640 PWs)   bands (ev):

   -40.1207 -40.0961 -19.1009 -18.9446 -18.8729 -18.8729 -18.8506 -18.8506
     4.6230   5.9074   9.4225   9.9564  10.2392  10.2395  10.4170

          k = 0.0000 0.0000-0.3137 (  2628 PWs)   bands (ev):

   -40.1084 -40.1084 -19.0233 -19.0233 -18.8617 -18.8617 -18.8617 -18.8617
     5.2305   5.2305   9.6690   9.6691  10.2974  10.2974  10.2975

          k = 0.0000 0.0962 0.0000 (  2663 PWs)   bands (ev):

   -40.1372 -40.0748 -19.2155 -18.9092 -18.8970 -18.8516 -18.8353 -18.8193
     3.9043   7.2741   9.1768  10.0874  10.4658  10.6348  10.6953

          k = 0.0000 0.0962 0.0784 (  2668 PWs)   bands (ev):

   -40.1348 -40.0772 -19.2014 -18.9065 -18.8947 -18.8598 -18.8376 -18.8290
     4.0040   7.1195   9.1498  10.0833  10.4112  10.5084  10.6338

          k = 0.0000 0.0962 0.1568 (  2661 PWs)   bands (ev):

   -40.1281 -40.0840 -19.1608 -18.8996 -18.8931 -18.8880 -18.8454 -18.8443
     4.2969   6.6708   9.1740  10.0891  10.2373  10.3380  10.6533

          k = 0.0000 0.0962 0.2353 (  2656 PWs)   bands (ev):

   -40.1180 -40.0941 -19.0998 -18.9543 -18.8874 -18.8780 -18.8595 -18.8544
     4.7625   6.0351   9.3359   9.9229  10.1358  10.3229  10.3808

          k = 0.0000 0.0962-0.3137 (  2658 PWs)   bands (ev):

   -40.1061 -40.1061 -19.0271 -19.0271 -18.8738 -18.8738 -18.8662 -18.8662
     5.3632   5.3632   9.6050   9.6050  10.2362  10.2363  10.3808

          k = 0.0000 0.1925 0.0000 (  2665 PWs)   bands (ev):

   -40.1279 -40.0712 -19.1904 -18.9593 -18.9130 -18.9028 -18.8428 -18.8306
     4.3435   7.6224   8.8921   9.6763  10.4104  10.7836  10.8162

          k = 0.0000 0.1925 0.0784 (  2652 PWs)   bands (ev):

   -40.1258 -40.0734 -19.1792 -18.9551 -18.9123 -18.9104 -18.8454 -18.8368
     4.4385   7.4681   8.8768   9.6956  10.4014  10.5466  10.6333

          k = 0.0000 0.1925 0.1568 (  2651 PWs)   bands (ev):

   -40.1197 -40.0796 -19.1476 -18.9486 -18.9355 -18.9028 -18.8533 -18.8531
     4.7175   7.0160   8.9393   9.7523  10.1761  10.4102  10.5427

          k = 0.0000 0.1925 0.2353 (  2651 PWs)   bands (ev):

   -40.1105 -40.0888 -19.1003 -18.9891 -18.9219 -18.8914 -18.8754 -18.8646
     5.1620   6.3886   9.1415   9.7405   9.9598  10.2620  10.5361

          k = 0.0000 0.1925-0.3137 (  2650 PWs)   bands (ev):

   -40.0997 -40.0997 -19.0443 -19.0443 -18.8993 -18.8993 -18.8780 -18.8780
     5.7381   5.7381   9.4377   9.4378  10.0812  10.0813  10.6075

          k = 0.0000 0.2887 0.0000 (  2661 PWs)   bands (ev):

   -40.1148 -40.0669 -19.1526 -19.0284 -18.9706 -18.9342 -18.8537 -18.8493
     5.0253   8.0298   8.5854   9.2514  10.1906  10.4711  10.5715

          k = 0.0000 0.2887 0.0784 (  2648 PWs)   bands (ev):

   -40.1130 -40.0687 -19.1490 -19.0197 -18.9796 -18.9311 -18.8568 -18.8526
     5.1106   7.8807   8.5975   9.2822  10.1631  10.4121  10.5847

          k = 0.0000 0.2887 0.1568 (  2643 PWs)   bands (ev):

   -40.1078 -40.0739 -19.1372 -19.0155 -18.9846 -18.9225 -18.8655 -18.8642
     5.3611   7.4456   8.7157   9.3588  10.0174  10.3005  10.6342

          k = 0.0000 0.2887 0.2353 (  2639 PWs)   bands (ev):

   -40.1000 -40.0817 -19.1153 -19.0479 -18.9530 -18.9094 -18.8861 -18.8786
     5.7604   6.8670   8.9426   9.3963   9.8586  10.1309  10.7352

          k = 0.0000 0.2887-0.3137 (  2636 PWs)   bands (ev):

   -40.0909 -40.0909 -19.0841 -19.0841 -18.9172 -18.9172 -18.8941 -18.8941
     6.2786   6.2786   9.2147   9.2148   9.9339   9.9340  10.8879

          k = 0.0000 0.3849 0.0000 (  2648 PWs)   bands (ev):

   -40.1005 -40.0636 -19.1082 -19.0981 -19.0361 -18.9547 -18.8745 -18.8651
     5.8653   8.1904   8.3373   8.9155  10.2163  10.2240  10.3594

          k = 0.0000 0.3849 0.0784 (  2643 PWs)   bands (ev):

   -40.0991 -40.0650 -19.1345 -19.0672 -19.0405 -18.9513 -18.8744 -18.8686
     5.9324   8.0476   8.4074   8.9572  10.0714  10.3026  10.4089

          k = 0.0000 0.3849 0.1568 (  2641 PWs)   bands (ev):

   -40.0951 -40.0690 -19.1512 -19.0799 -19.0070 -18.9416 -18.8787 -18.8783
     6.1289   7.7139   8.5685   9.0455   9.9256  10.2522  10.5539

          k = 0.0000 0.3849 0.2353 (  2643 PWs)   bands (ev):

   -40.0892 -40.0750 -19.1516 -19.1103 -18.9612 -18.9272 -18.8936 -18.8929
     6.4399   7.2839   8.7911   9.0994   9.8384  10.0833  10.7841

          k = 0.0000 0.3849-0.3137 (  2644 PWs)   bands (ev):

   -40.0821 -40.0821 -19.1367 -19.1367 -18.9217 -18.9217 -18.9101 -18.9101
     6.8389   6.8389   9.0066   9.0066   9.8999   9.8999  11.0790

          k = 0.0000 0.4811 0.0000 (  2658 PWs)   bands (ev):

   -40.0888 -40.0625 -19.1495 -19.0831 -19.0669 -18.9694 -18.9017 -18.8739
     6.7175   8.0246   8.1811   8.6647  10.0533  10.2181  10.4296

          k = 0.0000 0.4811 0.0784 (  2650 PWs)   bands (ev):

   -40.0878 -40.0635 -19.1636 -19.0970 -19.0421 -18.9657 -18.8982 -18.8775
     6.7494   7.9282   8.2803   8.6956  10.0581  10.2801  10.3833

          k = 0.0000 0.4811 0.1568 (  2647 PWs)   bands (ev):

   -40.0849 -40.0664 -19.1823 -19.1254 -18.9980 -18.9554 -18.8945 -18.8879
     6.8465   7.7319   8.4733   8.7930  10.0445  10.2601  10.4629

          k = 0.0000 0.4811 0.2353 (  2649 PWs)   bands (ev):

   -40.0807 -40.0706 -19.1885 -19.1560 -18.9546 -18.9401 -18.9035 -18.9004
     7.0091   7.4832   8.7039   8.9035   9.9880  10.1097  10.7560

          k = 0.0000 0.4811-0.3137 (  2644 PWs)   bands (ev):

   -40.0756 -40.0756 -19.1791 -19.1791 -18.9218 -18.9218 -18.9206 -18.9206
     7.2290   7.2290   8.8866   8.8866   9.9908   9.9910  11.1401

          k = 0.0000-0.5774 0.0000 (  2642 PWs)   bands (ev):

   -40.0838 -40.0628 -19.1682 -19.1000 -19.0475 -18.9747 -18.9158 -18.8771
     7.2333   7.7879   8.1285   8.5497   9.9927  10.1689  10.5288

          k = 0.0000-0.5774 0.0784 (  2656 PWs)   bands (ev):

   -40.0830 -40.0636 -19.1795 -19.1127 -19.0287 -18.9710 -18.9105 -18.8808
     7.2134   7.7646   8.2384   8.5475  10.0468  10.2342  10.4577

          k = 0.0000-0.5774 0.1568 (  2642 PWs)   bands (ev):

   -40.0807 -40.0659 -19.1965 -19.1419 -18.9893 -18.9605 -18.9027 -18.8914
     7.1991   7.6715   8.5006   8.5997  10.1418  10.2780  10.4277

          k = 0.0000-0.5774 0.2353 (  2648 PWs)   bands (ev):

   -40.0773 -40.0693 -19.2034 -19.1728 -18.9497 -18.9448 -18.9073 -18.9038
     7.2430   7.5150   8.7382   8.7688  10.0947  10.1491  10.7384

          k = 0.0000-0.5774-0.3137 (  2652 PWs)   bands (ev):

   -40.0733 -40.0733 -19.1950 -19.1950 -18.9261 -18.9261 -18.9196 -18.9196
     7.3556   7.3556   8.8552   8.8552  10.0640  10.0641  11.1484

          k = 0.0833 0.1443 0.0000 (  2659 PWs)   bands (ev):

   -40.1309 -40.0723 -19.1985 -18.9398 -18.9161 -18.8797 -18.8428 -18.8268
     4.1998   7.5155   8.9773   9.7882  10.4910  10.6965  10.7658

          k = 0.0833 0.1443 0.0784 (  2657 PWs)   bands (ev):

   -40.1287 -40.0746 -19.1863 -18.9362 -18.9155 -18.8876 -18.8453 -18.8335
     4.2965   7.3608   8.9574   9.8032  10.4987  10.5145  10.5885

          k = 0.0833 0.1443 0.1568 (  2652 PWs)   bands (ev):

   -40.1224 -40.0809 -19.1514 -18.9294 -18.9257 -18.8977 -18.8526 -18.8493
     4.5803   6.9087   9.0074   9.8514  10.2026  10.4385  10.4963

          k = 0.0833 0.1443 0.2353 (  2652 PWs)   bands (ev):

   -40.1129 -40.0905 -19.0993 -18.9766 -18.9101 -18.8909 -18.8679 -18.8633
     5.0324   6.2767   9.1991   9.8165   9.9930  10.2913  10.4820

          k = 0.0833 0.1443-0.3137 (  2640 PWs)   bands (ev):

   -40.1017 -40.1017 -19.0375 -19.0375 -18.8923 -18.8923 -18.8744 -18.8744
     5.6177   5.6177   9.4923   9.4924  10.1221  10.1223  10.5382

          k = 0.0833 0.2406 0.0000 (  2659 PWs)   bands (ev):

   -40.1197 -40.0684 -19.1670 -18.9948 -18.9611 -18.9137 -18.8557 -18.8419
     4.7624   7.9128   8.6996   9.3771  10.2613  10.4665  10.7577

          k = 0.0833 0.2406 0.0784 (  2655 PWs)   bands (ev):

   -40.1177 -40.0704 -19.1597 -18.9888 -18.9651 -18.9169 -18.8588 -18.8452
     4.8520   7.7601   8.6965   9.4046  10.2708  10.3882  10.6818

          k = 0.0833 0.2406 0.1568 (  2645 PWs)   bands (ev):

   -40.1122 -40.0759 -19.1385 -18.9896 -18.9658 -18.9177 -18.8675 -18.8563
     5.1154   7.3096   8.7927   9.4802  10.0913  10.3069  10.6317

          k = 0.0833 0.2406 0.2353 (  2641 PWs)   bands (ev):

   -40.1039 -40.0843 -19.1059 -19.0238 -18.9410 -18.9110 -18.8808 -18.8739
     5.5355   6.7015   9.0156   9.5242   9.8769  10.1467  10.6836

          k = 0.0833 0.2406-0.3137 (  2644 PWs)   bands (ev):

   -40.0941 -40.0941 -19.0657 -19.0657 -18.9149 -18.9149 -18.8879 -18.8879
     6.0813   6.0813   9.3063   9.3063   9.9520   9.9521  10.7895

          k = 0.0833 0.3368 0.0000 (  2653 PWs)   bands (ev):

   -40.1059 -40.0646 -19.1256 -19.0629 -19.0157 -18.9452 -18.8695 -18.8641
     5.5306   8.2320   8.4453   9.0008  10.1573  10.2105  10.5154

          k = 0.0833 0.3368 0.0784 (  2647 PWs)   bands (ev):

   -40.1044 -40.0662 -19.1324 -19.0491 -19.0192 -18.9450 -18.8743 -18.8630
     5.6071   8.0822   8.4886   9.0385  10.0671  10.2770  10.4982

          k = 0.0833 0.3368 0.1568 (  2640 PWs)   bands (ev):

   -40.0999 -40.0707 -19.1377 -19.0546 -18.9988 -18.9403 -18.8849 -18.8668
     5.8317   7.6843   8.6370   9.1286   9.9244  10.2262  10.5683

          k = 0.0833 0.3368 0.2353 (  2647 PWs)   bands (ev):

   -40.0932 -40.0774 -19.1310 -19.0832 -18.9607 -18.9296 -18.8988 -18.8804
     6.1887   7.1717   8.8626   9.2009   9.7905  10.0338  10.7581

          k = 0.0833 0.3368-0.3137 (  2644 PWs)   bands (ev):

   -40.0853 -40.0853 -19.1114 -19.1114 -18.9309 -18.9309 -18.8995 -18.8995
     6.6502   6.6502   9.0986   9.0986   9.8351   9.8352  10.9952

          k = 0.0833 0.4330 0.0000 (  2651 PWs)   bands (ev):

   -40.0927 -40.0626 -19.1232 -19.0815 -19.0635 -18.9697 -18.8915 -18.8815
     6.3950   8.2047   8.2630   8.7352  10.0427  10.2833  10.3269

          k = 0.0833 0.4330 0.0784 (  2648 PWs)   bands (ev):

   -40.0916 -40.0638 -19.1423 -19.0816 -19.0460 -18.9671 -18.8929 -18.8808
     6.4473   8.0715   8.3576   8.7864   9.9911  10.2670  10.3705

          k = 0.0833 0.4330 0.1568 (  2650 PWs)   bands (ev):

   -40.0883 -40.0670 -19.1622 -19.1057 -19.0043 -18.9568 -18.9018 -18.8795
     6.6006   7.8174   8.5266   8.8994   9.8874  10.1599  10.5234

          k = 0.0833 0.4330 0.2353 (  2645 PWs)   bands (ev):

   -40.0834 -40.0719 -19.1676 -19.1346 -18.9680 -18.9385 -18.9148 -18.8863
     6.8427   7.4929   8.7500   8.9934   9.8002   9.9734  10.7742

          k = 0.0833 0.4330-0.3137 (  2660 PWs)   bands (ev):

   -40.0777 -40.0777 -19.1576 -19.1576 -18.9433 -18.9433 -18.9042 -18.9042
     7.1516   7.1516   8.9481   8.9481   9.8175   9.8176  11.0997

          k = 0.0833 0.5292 0.0000 (  2652 PWs)   bands (ev):

   -40.0838 -40.0628 -19.1581 -19.0912 -19.0479 -18.9831 -18.9155 -18.8884
     7.1547   7.9517   8.1698   8.5484   9.9767  10.1275  10.5243

          k = 0.0833 0.5292 0.0784 (  2642 PWs)   bands (ev):

   -40.0830 -40.0636 -19.1692 -19.1043 -19.0305 -18.9775 -18.9125 -18.8896
     7.1599   7.9001   8.2716   8.5709   9.9918  10.1348  10.5110

          k = 0.0833 0.5292 0.1568 (  2651 PWs)   bands (ev):

   -40.0807 -40.0658 -19.1864 -19.1334 -18.9996 -18.9594 -18.9154 -18.8890
     7.1923   7.7743   8.4900   8.6767   9.9917  10.0728  10.5834

          k = 0.0833 0.5292 0.2353 (  2647 PWs)   bands (ev):

   -40.0773 -40.0692 -19.1934 -19.1637 -18.9734 -18.9348 -18.9262 -18.8909
     7.2769   7.5981   8.7285   8.8509   9.8863   9.9570  10.8267

          k = 0.0833 0.5292-0.3137 (  2644 PWs)   bands (ev):

   -40.0733 -40.0733 -19.1855 -19.1855 -18.9509 -18.9509 -18.9046 -18.9046
     7.4186   7.4186   8.8963   8.8963   9.8485   9.8486  11.1773

          k = 0.1667 0.2887 0.0000 (  2660 PWs)   bands (ev):

   -40.1079 -40.0651 -19.1316 -19.0329 -19.0252 -18.9339 -18.8792 -18.8607
     5.4167   8.2681   8.4999   9.0051  10.1476  10.1661  10.6040

          k = 0.1667 0.2887 0.0784 (  2652 PWs)   bands (ev):

   -40.1062 -40.0667 -19.1334 -19.0293 -19.0195 -18.9391 -18.8823 -18.8600
     5.4965   8.1134   8.5308   9.0388  10.1160  10.1970  10.5495

          k = 0.1667 0.2887 0.1568 (  2642 PWs)   bands (ev):

   -40.1016 -40.0713 -19.1323 -19.0447 -18.9884 -18.9447 -18.8904 -18.8634
     5.7307   7.6856   8.6734   9.1319   9.9665  10.1877  10.5416

          k = 0.1667 0.2887 0.2353 (  2646 PWs)   bands (ev):

   -40.0947 -40.0783 -19.1212 -19.0711 -18.9541 -18.9417 -18.8997 -18.8766
     6.1038   7.1386   8.9010   9.2296   9.7836   9.9929  10.7154

          k = 0.1667 0.2887-0.3137 (  2650 PWs)   bands (ev):

   -40.0865 -40.0865 -19.0994 -19.0994 -18.9370 -18.9370 -18.8959 -18.8959
     6.5880   6.5880   9.1446   9.1446   9.7919   9.7920  10.9388

          k = 0.1667 0.3849 0.0000 (  2647 PWs)   bands (ev):

   -40.0949 -40.0628 -19.0893 -19.0886 -19.0597 -18.9664 -18.9016 -18.8862
     6.2287   8.3495   8.4246   8.7053   9.9541  10.2340  10.3626

          k = 0.1667 0.3849 0.0784 (  2652 PWs)   bands (ev):

   -40.0937 -40.0640 -19.1190 -19.0796 -19.0358 -18.9711 -18.9059 -18.8805
     6.2920   8.2299   8.4844   8.7505   9.9177  10.2579  10.3122

          k = 0.1667 0.3849 0.1568 (  2651 PWs)   bands (ev):

   -40.0902 -40.0675 -19.1395 -19.0936 -18.9974 -18.9720 -18.9144 -18.8748
     6.4773   7.9407   8.6296   8.8595   9.8217  10.0792  10.4378

          k = 0.1667 0.3849 0.2353 (  2648 PWs)   bands (ev):

   -40.0850 -40.0727 -19.1450 -19.1159 -18.9767 -18.9579 -18.9163 -18.8798
     6.7696   7.5531   8.8315   8.9853   9.6932   9.8362  10.6710

          k = 0.1667 0.3849-0.3137 (  2652 PWs)   bands (ev):

   -40.0789 -40.0789 -19.1358 -19.1358 -18.9628 -18.9628 -18.8971 -18.8971
     7.1422   7.1422   9.0002   9.0002   9.6625   9.6625  10.9798

          k = 0.1667 0.4811 0.0000 (  2638 PWs)   bands (ev):

   -40.0839 -40.0627 -19.1316 -19.0759 -19.0485 -18.9977 -18.9167 -18.9147
     7.0559   8.2512   8.2627   8.5374   9.8706  10.1124  10.4920

          k = 0.1667 0.4811 0.0784 (  2651 PWs)   bands (ev):

   -40.0831 -40.0635 -19.1421 -19.0925 -19.0306 -18.9924 -18.9258 -18.9017
     7.0913   8.1505   8.3535   8.6089   9.8424  10.0492  10.5102

          k = 0.1667 0.4811 0.1568 (  2651 PWs)   bands (ev):

   -40.0808 -40.0658 -19.1598 -19.1180 -19.0167 -18.9676 -18.9344 -18.8881
     7.1953   7.9929   8.5153   8.7693   9.7529   9.8749  10.5979

          k = 0.1667 0.4811 0.2353 (  2650 PWs)   bands (ev):

   -40.0774 -40.0692 -19.1686 -19.1444 -19.0019 -18.9653 -18.9192 -18.8845
     7.3597   7.7900   8.7437   8.9378   9.6234   9.6434  10.7855

          k = 0.1667 0.4811-0.3137 (  2656 PWs)   bands (ev):

   -40.0733 -40.0733 -19.1631 -19.1631 -18.9832 -18.9832 -18.8956 -18.8956
     7.5673   7.5673   8.9518   8.9518   9.5290   9.5290  11.0697

          k = 0.1667 0.5774 0.0000 (  2648 PWs)   bands (ev):

   -40.0790 -40.0635 -19.1472 -19.0801 -19.0278 -19.0111 -18.9311 -18.9221
     7.5600   8.0332   8.2350   8.4423   9.9138   9.9464  10.6200

          k = 0.1667 0.5774 0.0784 (  2643 PWs)   bands (ev):

   -40.0784 -40.0641 -19.1554 -19.0940 -19.0331 -18.9877 -18.9377 -18.9111
     7.5525   8.0201   8.3264   8.4750   9.8773   9.9108  10.6335

          k = 0.1667 0.5774 0.1568 (  2656 PWs)   bands (ev):

   -40.0767 -40.0658 -19.1706 -19.1239 -19.0273 -18.9510 -18.9507 -18.8951
     7.5596   7.9584   8.5563   8.5960   9.7698   9.7783  10.7105

          k = 0.1667 0.5774 0.2353 (  2649 PWs)   bands (ev):

   -40.0742 -40.0683 -19.1787 -19.1535 -19.0115 -18.9695 -18.9169 -18.8875
     7.6145   7.8450   8.8030   8.8387   9.5596   9.5975  10.8891

          k = 0.1667 0.5774-0.3137 (  2648 PWs)   bands (ev):

   -40.0712 -40.0712 -19.1731 -19.1731 -18.9909 -18.9909 -18.8946 -18.8946
     7.7175   7.7175   8.9819   8.9819   9.4365   9.4365  11.1586

          k = 0.2500 0.4330 0.0000 (  2640 PWs)   bands (ev):

   -40.0839 -40.0626 -19.1089 -19.0791 -19.0488 -18.9971 -18.9376 -18.9144
     7.0198   8.3156   8.4464   8.4869   9.7947  10.1224  10.4586

          k = 0.2500 0.4330 0.0784 (  2643 PWs)   bands (ev):

   -40.0831 -40.0635 -19.1109 -19.1072 -19.0166 -19.0073 -18.9400 -18.9038
     7.0668   8.2532   8.4835   8.5629   9.7785  10.0179  10.4688

          k = 0.2500 0.4330 0.1568 (  2646 PWs)   bands (ev):

   -40.0808 -40.0658 -19.1356 -19.1201 -19.0184 -18.9835 -18.9394 -18.8881
     7.2023   8.1149   8.5932   8.7211   9.7116   9.7747  10.5258

          k = 0.2500 0.4330 0.2353 (  2655 PWs)   bands (ev):

   -40.0774 -40.0692 -19.1500 -19.1363 -19.0146 -18.9846 -18.9164 -18.8828
     7.4097   7.9098   8.7631   8.8975   9.5171   9.5752  10.6851

          k = 0.2500 0.4330-0.3137 (  2660 PWs)   bands (ev):

   -40.0733 -40.0733 -19.1491 -19.1491 -19.0004 -19.0004 -18.8928 -18.8928
     7.6595   7.6595   8.9310   8.9310   9.4350   9.4350  10.9702

          k = 0.2500 0.5292 0.0000 (  2639 PWs)   bands (ev):

   -40.0756 -40.0646 -19.1240 -19.0679 -19.0318 -19.0126 -18.9603 -18.9435
     7.7126   8.2631   8.3175   8.3812   9.7687   9.8967  10.6826

          k = 0.2500 0.5292 0.0784 (  2642 PWs)   bands (ev):

   -40.0751 -40.0650 -19.1270 -19.0868 -19.0472 -18.9873 -18.9645 -18.9270
     7.7410   8.2364   8.3494   8.4700   9.7282   9.8015  10.6870

          k = 0.2500 0.5292 0.1568 (  2642 PWs)   bands (ev):

   -40.0739 -40.0662 -19.1394 -19.1139 -19.0569 -18.9864 -18.9397 -18.9027
     7.8195   8.1932   8.4729   8.6531   9.5515   9.6142  10.7221

          k = 0.2500 0.5292 0.2353 (  2657 PWs)   bands (ev):

   -40.0722 -40.0680 -19.1518 -19.1380 -19.0470 -19.0052 -18.9082 -18.8884
     7.9291   8.1332   8.6768   8.8905   9.2513   9.4106  10.8362

          k = 0.2500 0.5292-0.3137 (  2654 PWs)   bands (ev):

   -40.0701 -40.0701 -19.1520 -19.1520 -19.0272 -19.0272 -18.8899 -18.8899
     8.0425   8.0425   8.9418   8.9418   9.1601   9.1601  11.0658

          k = 0.3333 0.5774 0.0000 (  2616 PWs)   bands (ev):

   -40.0689 -40.0689 -19.1144 -19.0530 -19.0530 -18.9859 -18.9767 -18.9767
     8.1625   8.1625   8.2659   8.3543   9.7655   9.7655  10.7771

          k = 0.3333 0.5774 0.0784 (  2640 PWs)   bands (ev):

   -40.0689 -40.0689 -19.1097 -19.0746 -19.0746 -18.9910 -18.9550 -18.9550
     8.2080   8.2080   8.2845   8.3727   9.6878   9.6879  10.7757

          k = 0.3333 0.5774 0.1568 (  2667 PWs)   bands (ev):

   -40.0689 -40.0689 -19.1078 -19.1078 -19.0960 -19.0051 -18.9214 -18.9214
     8.3347   8.3385   8.3385   8.4148   9.4866   9.4867  10.7927

          k = 0.3333 0.5774 0.2353 (  2661 PWs)   bands (ev):

   -40.0689 -40.0689 -19.1318 -19.1318 -19.0753 -19.0261 -18.8968 -18.8968
     8.3973   8.4486   8.5268   8.5268   9.2361   9.2361  10.8795

          k = 0.3333 0.5774-0.3137 (  2652 PWs)   bands (ev):

   -40.0689 -40.0689 -19.1404 -19.1404 -19.0507 -19.0507 -18.8879 -18.8879
     8.4433   8.4433   8.6580   8.6580   9.0810   9.0810  11.0839

     the Fermi energy is     8.8194 ev

!    total energy              =    -306.86963233 Ry
     total all-electron energy =     -3050.010403 Ry
     estimated scf accuracy    <          5.1E-09 Ry
     smearing contrib. (-TS)   =      -0.00103848 Ry
     internal energy E=F+TS    =    -306.86859385 Ry

     The total energy is F=E-TS. E is the sum of the following terms:
     one-electron contribution =     -74.39589094 Ry
     hartree contribution      =      42.28007959 Ry
     xc contribution           =     -34.52836961 Ry
     ewald contribution        =    -126.46581264 Ry
     one-center paw contrib.   =    -113.75860026 Ry

     convergence has been achieved in   8 iterations

     Writing all to output data dir sc_rhocut.out/scandium.save/

     init_run     :      0.59s CPU      0.63s WALL (       1 calls)
     electrons    :     17.23s CPU     18.33s WALL (       1 calls)

     Called by init_run:
     wfcinit      :      0.48s CPU      0.50s WALL (       1 calls)
     potinit      :      0.04s CPU      0.05s WALL (       1 calls)
     hinit0       :      0.06s CPU      0.06s WALL (       1 calls)

     Called by electrons:
     c_bands      :     15.52s CPU     16.54s WALL (       9 calls)
     sum_band     :      1.41s CPU      1.46s WALL (       9 calls)
     v_of_rho     :      0.00s CPU      0.01s WALL (       9 calls)
     newd         :      0.05s CPU      0.06s WALL (       9 calls)
     PAW_pot      :      0.27s CPU      0.27s WALL (       9 calls)
     mix_rho      :      0.00s CPU      0.00s WALL (       9 calls)

     Called by c_bands:
     init_us_2    :      0.15s CPU      0.16s WALL (    1805 calls)
     init_us_2:cp :      0.15s CPU      0.16s WALL (    1805 calls)
     cegterg      :     15.20s CPU     15.73s WALL (     855 calls)

     Called by *egterg:
     cdiaghg      :      2.08s CPU      2.15s WALL (    7203 calls)
     h_psi        :     10.51s CPU     10.93s WALL (    7393 calls)
     s_psi        :      0.52s CPU      0.54s WALL (    7393 calls)
     g_psi        :      0.05s CPU      0.05s WALL (    6443 calls)

     Called by h_psi:
     h_psi:calbec :      0.73s CPU      0.76s WALL (    7393 calls)
     vloc_psi     :      9.21s CPU      9.57s WALL (    7393 calls)
     add_vuspsi   :      0.51s CPU      0.53s WALL (    7393 calls)

     General routines
     calbec       :      0.86s CPU      0.90s WALL (    8248 calls)
     fft          :      0.01s CPU      0.01s WALL (      37 calls)
     ffts         :      0.00s CPU      0.00s WALL (       9 calls)
     fftw         :      9.50s CPU      9.87s WALL (  124449 calls)

     Parallel routines

     PWSCF        :     18.23s CPU     19.71s WALL


   This run was terminated on:  12:13: 3  26Jul2023            

=------------------------------------------------------------------------------=
   JOB DONE.
=------------------------------------------------------------------------------=
