
     Program PWSCF v.7.2 starts on 26Jul2023 at 14:32:22 

     This program is part of the open-source Quantum ESPRESSO suite
     for quantum simulation of materials; please cite
         "P. Giannozzi et al., J. Phys.:Condens. Matter 21 395502 (2009);
         "P. Giannozzi et al., J. Phys.:Condens. Matter 29 465901 (2017);
         "P. Giannozzi et al., J. Chem. Phys. 152 154105 (2020);
          URL http://www.quantum-espresso.org", 
     in publications or presentations arising from this work. More details at
     http://www.quantum-espresso.org/quote

     Parallel version (MPI), running on    20 processors

     MPI processes distributed on     1 nodes
     316653 MiB available memory on the printing compute node when the environment starts

     Waiting for input...
     Reading input from standard input

     Current dimensions of program PWSCF are:
     Max number of different atomic species (ntypx) = 10
     Max number of k-points (npk) = 120000
     Max angular momentum in pseudopotentials (lmaxx) =  4
     file Sc.pz-spn-kjpaw_psl.1.0.0.UPF: wavefunction(s)  3S 3P 3D renormalized

     R & G space division:  proc/nbgrp/npool/nimage =      20
     Subspace diagonalization in iterative solution of the eigenvalue problem:
     a serial algorithm will be used


     Parallelization info
     --------------------
     sticks:   dense  smooth     PW     G-vecs:    dense   smooth      PW
     Min          42      27      8                 1626      805     132
     Max          43      28      9                 1637      808     137
     Sum         859     547    163                32631    16131    2707

     Using Slab Decomposition



     bravais-lattice index     =            4
     lattice parameter (alat)  =       6.2531  a.u.
     unit-cell volume          =     337.5249 (a.u.)^3
     number of atoms/cell      =            2
     number of atomic types    =            1
     number of electrons       =        22.00
     number of Kohn-Sham states=           15
     kinetic-energy cutoff     =      50.0000  Ry
     charge density cutoff     =     320.0000  Ry
     scf convergence threshold =      1.0E-08
     mixing beta               =       0.7000
     number of iterations used =            8  plain     mixing
     Exchange-correlation= SLA  PZ   NOGX NOGC
                           (   1   1   0   0   0   0   0)

     celldm(1)=   6.253104  celldm(2)=   0.000000  celldm(3)=   1.594000
     celldm(4)=   0.000000  celldm(5)=   0.000000  celldm(6)=   0.000000

     crystal axes: (cart. coord. in units of alat)
               a(1) = (   1.000000   0.000000   0.000000 )  
               a(2) = (  -0.500000   0.866025   0.000000 )  
               a(3) = (   0.000000   0.000000   1.594000 )  

     reciprocal axes: (cart. coord. in units 2 pi/alat)
               b(1) = (  1.000000  0.577350 -0.000000 )  
               b(2) = (  0.000000  1.154701  0.000000 )  
               b(3) = (  0.000000 -0.000000  0.627353 )  


     PseudoPot. # 1 for Sc read from file:
     ../../../Sc.pz-spn-kjpaw_psl.1.0.0.UPF
     MD5 check sum: 1f9095df0bb42a6568b4e9f256ff075f
     Pseudo is Projector augmented-wave + core cor, Zval = 11.0
     Generated using 'atomic' code by A. Dal Corso  v.7.1
     Shape of augmentation charge: PSQ
     Using radial grid of 1173 points,  6 beta functions with: 
                l(1) =   0
                l(2) =   0
                l(3) =   1
                l(4) =   1
                l(5) =   2
                l(6) =   2
     Q(r) pseudized with 0 coefficients 


     atomic species   valence    mass     pseudopotential
        Sc            11.00    44.59600     Sc( 1.00)

     24 Sym. Ops., with inversion, found (12 have fractional translation)



   Cartesian axes

     site n.     atom                  positions (alat units)
         1           Sc  tau(   1) = (   0.0000000   0.0000000   0.0000000  )
         2           Sc  tau(   2) = (   0.5000000   0.2886751   0.7970000  )

     number of k points=    95  Marzari-Vanderbilt smearing, width (Ry)=  0.0200
                       cart. coord. in units 2pi/alat
        k(    1) = (   0.0000000   0.0000000   0.0000000), wk =   0.0017361
        k(    2) = (   0.0000000   0.0000000   0.0784191), wk =   0.0034722
        k(    3) = (   0.0000000   0.0000000   0.1568381), wk =   0.0034722
        k(    4) = (   0.0000000   0.0000000   0.2352572), wk =   0.0034722
        k(    5) = (   0.0000000   0.0000000  -0.3136763), wk =   0.0017361
        k(    6) = (   0.0000000   0.0962250   0.0000000), wk =   0.0104167
        k(    7) = (   0.0000000   0.0962250   0.0784191), wk =   0.0208333
        k(    8) = (   0.0000000   0.0962250   0.1568381), wk =   0.0208333
        k(    9) = (   0.0000000   0.0962250   0.2352572), wk =   0.0208333
        k(   10) = (   0.0000000   0.0962250  -0.3136763), wk =   0.0104167
        k(   11) = (   0.0000000   0.1924501   0.0000000), wk =   0.0104167
        k(   12) = (   0.0000000   0.1924501   0.0784191), wk =   0.0208333
        k(   13) = (   0.0000000   0.1924501   0.1568381), wk =   0.0208333
        k(   14) = (   0.0000000   0.1924501   0.2352572), wk =   0.0208333
        k(   15) = (   0.0000000   0.1924501  -0.3136763), wk =   0.0104167
        k(   16) = (   0.0000000   0.2886751   0.0000000), wk =   0.0104167
        k(   17) = (   0.0000000   0.2886751   0.0784191), wk =   0.0208333
        k(   18) = (   0.0000000   0.2886751   0.1568381), wk =   0.0208333
        k(   19) = (   0.0000000   0.2886751   0.2352572), wk =   0.0208333
        k(   20) = (   0.0000000   0.2886751  -0.3136763), wk =   0.0104167
        k(   21) = (   0.0000000   0.3849002   0.0000000), wk =   0.0104167
        k(   22) = (   0.0000000   0.3849002   0.0784191), wk =   0.0208333
        k(   23) = (   0.0000000   0.3849002   0.1568381), wk =   0.0208333
        k(   24) = (   0.0000000   0.3849002   0.2352572), wk =   0.0208333
        k(   25) = (   0.0000000   0.3849002  -0.3136763), wk =   0.0104167
        k(   26) = (   0.0000000   0.4811252   0.0000000), wk =   0.0104167
        k(   27) = (   0.0000000   0.4811252   0.0784191), wk =   0.0208333
        k(   28) = (   0.0000000   0.4811252   0.1568381), wk =   0.0208333
        k(   29) = (   0.0000000   0.4811252   0.2352572), wk =   0.0208333
        k(   30) = (   0.0000000   0.4811252  -0.3136763), wk =   0.0104167
        k(   31) = (   0.0000000  -0.5773503   0.0000000), wk =   0.0052083
        k(   32) = (   0.0000000  -0.5773503   0.0784191), wk =   0.0104167
        k(   33) = (   0.0000000  -0.5773503   0.1568381), wk =   0.0104167
        k(   34) = (   0.0000000  -0.5773503   0.2352572), wk =   0.0104167
        k(   35) = (   0.0000000  -0.5773503  -0.3136763), wk =   0.0052083
        k(   36) = (   0.0833333   0.1443376   0.0000000), wk =   0.0104167
        k(   37) = (   0.0833333   0.1443376   0.0784191), wk =   0.0208333
        k(   38) = (   0.0833333   0.1443376   0.1568381), wk =   0.0208333
        k(   39) = (   0.0833333   0.1443376   0.2352572), wk =   0.0208333
        k(   40) = (   0.0833333   0.1443376  -0.3136763), wk =   0.0104167
        k(   41) = (   0.0833333   0.2405626   0.0000000), wk =   0.0208333
        k(   42) = (   0.0833333   0.2405626   0.0784191), wk =   0.0416667
        k(   43) = (   0.0833333   0.2405626   0.1568381), wk =   0.0416667
        k(   44) = (   0.0833333   0.2405626   0.2352572), wk =   0.0416667
        k(   45) = (   0.0833333   0.2405626  -0.3136763), wk =   0.0208333
        k(   46) = (   0.0833333   0.3367877   0.0000000), wk =   0.0208333
        k(   47) = (   0.0833333   0.3367877   0.0784191), wk =   0.0416667
        k(   48) = (   0.0833333   0.3367877   0.1568381), wk =   0.0416667
        k(   49) = (   0.0833333   0.3367877   0.2352572), wk =   0.0416667
        k(   50) = (   0.0833333   0.3367877  -0.3136763), wk =   0.0208333
        k(   51) = (   0.0833333   0.4330127   0.0000000), wk =   0.0208333
        k(   52) = (   0.0833333   0.4330127   0.0784191), wk =   0.0416667
        k(   53) = (   0.0833333   0.4330127   0.1568381), wk =   0.0416667
        k(   54) = (   0.0833333   0.4330127   0.2352572), wk =   0.0416667
        k(   55) = (   0.0833333   0.4330127  -0.3136763), wk =   0.0208333
        k(   56) = (   0.0833333   0.5292377   0.0000000), wk =   0.0208333
        k(   57) = (   0.0833333   0.5292377   0.0784191), wk =   0.0416667
        k(   58) = (   0.0833333   0.5292377   0.1568381), wk =   0.0416667
        k(   59) = (   0.0833333   0.5292377   0.2352572), wk =   0.0416667
        k(   60) = (   0.0833333   0.5292377  -0.3136763), wk =   0.0208333
        k(   61) = (   0.1666667   0.2886751   0.0000000), wk =   0.0104167
        k(   62) = (   0.1666667   0.2886751   0.0784191), wk =   0.0208333
        k(   63) = (   0.1666667   0.2886751   0.1568381), wk =   0.0208333
        k(   64) = (   0.1666667   0.2886751   0.2352572), wk =   0.0208333
        k(   65) = (   0.1666667   0.2886751  -0.3136763), wk =   0.0104167
        k(   66) = (   0.1666667   0.3849002   0.0000000), wk =   0.0208333
        k(   67) = (   0.1666667   0.3849002   0.0784191), wk =   0.0416667
        k(   68) = (   0.1666667   0.3849002   0.1568381), wk =   0.0416667
        k(   69) = (   0.1666667   0.3849002   0.2352572), wk =   0.0416667
        k(   70) = (   0.1666667   0.3849002  -0.3136763), wk =   0.0208333
        k(   71) = (   0.1666667   0.4811252   0.0000000), wk =   0.0208333
        k(   72) = (   0.1666667   0.4811252   0.0784191), wk =   0.0416667
        k(   73) = (   0.1666667   0.4811252   0.1568381), wk =   0.0416667
        k(   74) = (   0.1666667   0.4811252   0.2352572), wk =   0.0416667
        k(   75) = (   0.1666667   0.4811252  -0.3136763), wk =   0.0208333
        k(   76) = (   0.1666667   0.5773503   0.0000000), wk =   0.0104167
        k(   77) = (   0.1666667   0.5773503   0.0784191), wk =   0.0208333
        k(   78) = (   0.1666667   0.5773503   0.1568381), wk =   0.0208333
        k(   79) = (   0.1666667   0.5773503   0.2352572), wk =   0.0208333
        k(   80) = (   0.1666667   0.5773503  -0.3136763), wk =   0.0104167
        k(   81) = (   0.2500000   0.4330127   0.0000000), wk =   0.0104167
        k(   82) = (   0.2500000   0.4330127   0.0784191), wk =   0.0208333
        k(   83) = (   0.2500000   0.4330127   0.1568381), wk =   0.0208333
        k(   84) = (   0.2500000   0.4330127   0.2352572), wk =   0.0208333
        k(   85) = (   0.2500000   0.4330127  -0.3136763), wk =   0.0104167
        k(   86) = (   0.2500000   0.5292377   0.0000000), wk =   0.0208333
        k(   87) = (   0.2500000   0.5292377   0.0784191), wk =   0.0416667
        k(   88) = (   0.2500000   0.5292377   0.1568381), wk =   0.0416667
        k(   89) = (   0.2500000   0.5292377   0.2352572), wk =   0.0416667
        k(   90) = (   0.2500000   0.5292377  -0.3136763), wk =   0.0208333
        k(   91) = (   0.3333333   0.5773503   0.0000000), wk =   0.0034722
        k(   92) = (   0.3333333   0.5773503   0.0784191), wk =   0.0069444
        k(   93) = (   0.3333333   0.5773503   0.1568381), wk =   0.0069444
        k(   94) = (   0.3333333   0.5773503   0.2352572), wk =   0.0069444
        k(   95) = (   0.3333333   0.5773503  -0.3136763), wk =   0.0034722

     Dense  grid:    32631 G-vectors     FFT dimensions: (  36,  36,  60)

     Smooth grid:    16131 G-vectors     FFT dimensions: (  30,  30,  48)

     Estimated max dynamical RAM per process >       9.33 MB

     Estimated total dynamical RAM >     186.50 MB

     Check: negative core charge=   -0.000015

     Initial potential from superposition of free atoms

     starting charge      21.9956, renormalised to      22.0000
     Starting wfcs are   20 randomized atomic wfcs
     Checking if some PAW data can be deallocated... 

     total cpu time spent up to now is        0.8 secs

     Self-consistent Calculation

     iteration #  1     ecut=    50.00 Ry     beta= 0.70
     Davidson diagonalization with overlap
     ethr =  1.00E-02,  avg # of iterations =  3.1

     Threshold (ethr) on eigenvalues was too large:
     Diagonalizing with lowered threshold

     Davidson diagonalization with overlap
     c_bands:  1 eigenvalues not converged
     c_bands:  2 eigenvalues not converged
     c_bands:  1 eigenvalues not converged
     c_bands:  1 eigenvalues not converged
     c_bands:  1 eigenvalues not converged
     c_bands:  2 eigenvalues not converged
     c_bands:  4 eigenvalues not converged
     c_bands:  2 eigenvalues not converged
     c_bands:  2 eigenvalues not converged
     c_bands:  3 eigenvalues not converged
     c_bands:  3 eigenvalues not converged
     c_bands:  1 eigenvalues not converged
     c_bands:  3 eigenvalues not converged
     c_bands:  3 eigenvalues not converged
     c_bands:  1 eigenvalues not converged
     c_bands:  5 eigenvalues not converged
     c_bands:  2 eigenvalues not converged
     ethr =  8.00E-06,  avg # of iterations = 16.2

     total cpu time spent up to now is        5.3 secs

     total energy              =    -306.85874114 Ry
     estimated scf accuracy    <       0.02120380 Ry

     iteration #  2     ecut=    50.00 Ry     beta= 0.70
     Davidson diagonalization with overlap
     ethr =  9.64E-05,  avg # of iterations =  4.2

     total cpu time spent up to now is        6.6 secs

     total energy              =    -306.86408267 Ry
     estimated scf accuracy    <       0.00315667 Ry

     iteration #  3     ecut=    50.00 Ry     beta= 0.70
     Davidson diagonalization with overlap
     ethr =  1.43E-05,  avg # of iterations =  4.8

     total cpu time spent up to now is        7.9 secs

     total energy              =    -306.86502117 Ry
     estimated scf accuracy    <       0.00009301 Ry

     iteration #  4     ecut=    50.00 Ry     beta= 0.70
     Davidson diagonalization with overlap
     c_bands:  1 eigenvalues not converged
     c_bands:  2 eigenvalues not converged
     c_bands:  2 eigenvalues not converged
     c_bands:  1 eigenvalues not converged
     ethr =  4.23E-07,  avg # of iterations = 10.3

     total cpu time spent up to now is       10.1 secs

     total energy              =    -306.86521530 Ry
     estimated scf accuracy    <       0.00006094 Ry

     iteration #  5     ecut=    50.00 Ry     beta= 0.70
     Davidson diagonalization with overlap
     c_bands:  1 eigenvalues not converged
     ethr =  2.77E-07,  avg # of iterations =  5.8

     total cpu time spent up to now is       11.6 secs

     total energy              =    -306.86523754 Ry
     estimated scf accuracy    <       0.00001362 Ry

     iteration #  6     ecut=    50.00 Ry     beta= 0.70
     Davidson diagonalization with overlap
     ethr =  6.19E-08,  avg # of iterations =  5.5

     total cpu time spent up to now is       12.9 secs

     total energy              =    -306.86524304 Ry
     estimated scf accuracy    <       0.00000024 Ry

     iteration #  7     ecut=    50.00 Ry     beta= 0.70
     Davidson diagonalization with overlap
     c_bands:  1 eigenvalues not converged
     ethr =  1.08E-09,  avg # of iterations = 14.0

     total cpu time spent up to now is       15.3 secs

     End of self-consistent calculation

          k = 0.0000 0.0000 0.0000 (  1997 PWs)   bands (ev):

   -40.1402 -40.0759 -19.2218 -18.8878 -18.8878 -18.8290 -18.8290 -18.8123
     3.7530   7.1493   9.3028  10.3614  10.3615  10.4716  10.7645

          k = 0.0000 0.0000 0.0784 (  1973 PWs)   bands (ev):

   -40.1378 -40.0784 -19.2065 -18.8855 -18.8855 -18.8313 -18.8313 -18.8281
     3.8543   6.9949   9.2738  10.3189  10.3189  10.4066  10.7089

          k = 0.0000 0.0000 0.1568 (  1996 PWs)   bands (ev):

   -40.1309 -40.0854 -19.1634 -18.8792 -18.8792 -18.8739 -18.8377 -18.8377
     4.1515   6.5466   9.2851  10.2243  10.2566  10.2567  10.5743

          k = 0.0000 0.0000 0.2353 (  2008 PWs)   bands (ev):

   -40.1205 -40.0959 -19.0982 -18.9415 -18.8698 -18.8698 -18.8473 -18.8473
     4.6235   5.9089   9.4274   9.9616  10.2446  10.2448  10.4221

          k = 0.0000 0.0000-0.3137 (  2014 PWs)   bands (ev):

   -40.1082 -40.1082 -19.0203 -19.0203 -18.8586 -18.8586 -18.8586 -18.8586
     5.2314   5.2314   9.6744   9.6745  10.3025  10.3025  10.3025

          k = 0.0000 0.0962 0.0000 (  2001 PWs)   bands (ev):

   -40.1369 -40.0746 -19.2129 -18.9060 -18.8938 -18.8482 -18.8317 -18.8160
     3.9044   7.2794   9.1790  10.0927  10.4707  10.6410  10.7113

          k = 0.0000 0.0962 0.0784 (  1991 PWs)   bands (ev):

   -40.1346 -40.0770 -19.1986 -18.9034 -18.8915 -18.8563 -18.8341 -18.8255
     4.0042   7.1242   9.1529  10.0888  10.4164  10.5137  10.7824

          k = 0.0000 0.0962 0.1568 (  1998 PWs)   bands (ev):

   -40.1278 -40.0837 -19.1581 -18.8964 -18.8898 -18.8848 -18.8418 -18.8409
     4.2972   6.6738   9.1782  10.0947  10.2432  10.3432  10.6562

          k = 0.0000 0.0962 0.2353 (  1998 PWs)   bands (ev):

   -40.1178 -40.0939 -19.0969 -18.9511 -18.8841 -18.8747 -18.8561 -18.8510
     4.7630   6.0367   9.3412   9.9286  10.1413  10.3282  10.3858

          k = 0.0000 0.0962-0.3137 (  2006 PWs)   bands (ev):

   -40.1058 -40.1058 -19.0243 -19.0243 -18.8705 -18.8705 -18.8629 -18.8629
     5.3641   5.3641   9.6107   9.6107  10.2416  10.2420  10.3863

          k = 0.0000 0.1925 0.0000 (  2004 PWs)   bands (ev):

   -40.1277 -40.0710 -19.1877 -18.9562 -18.9099 -18.8996 -18.8392 -18.8272
     4.3438   7.6281   8.8954   9.6820  10.4153  10.7879  10.8212

          k = 0.0000 0.1925 0.0784 (  1996 PWs)   bands (ev):

   -40.1256 -40.0732 -19.1765 -18.9520 -18.9091 -18.9072 -18.8420 -18.8334
     4.4388   7.4727   8.8809   9.7013  10.4065  10.5513  10.6381

          k = 0.0000 0.1925 0.1568 (  1994 PWs)   bands (ev):

   -40.1194 -40.0794 -19.1448 -18.9454 -18.9323 -18.8996 -18.8499 -18.8497
     4.7180   7.0190   8.9446   9.7580  10.1820  10.4151  10.5479

          k = 0.0000 0.1925 0.2353 (  1998 PWs)   bands (ev):

   -40.1103 -40.0886 -19.0974 -18.9860 -18.9187 -18.8882 -18.8720 -18.8612
     5.1627   6.3904   9.1474   9.7465   9.9655  10.2670  10.5412

          k = 0.0000 0.1925-0.3137 (  2010 PWs)   bands (ev):

   -40.0994 -40.0994 -19.0414 -19.0414 -18.8961 -18.8961 -18.8747 -18.8747
     5.7392   5.7392   9.4439   9.4439  10.0864  10.0865  10.6124

          k = 0.0000 0.2887 0.0000 (  2010 PWs)   bands (ev):

   -40.1145 -40.0667 -19.1497 -19.0254 -18.9674 -18.9311 -18.8503 -18.8459
     5.0260   8.0359   8.5901   9.2573  10.1957  10.4760  10.5770

          k = 0.0000 0.2887 0.0784 (  2016 PWs)   bands (ev):

   -40.1127 -40.0685 -19.1463 -19.0167 -18.9766 -18.9280 -18.8534 -18.8492
     5.1113   7.8853   8.6030   9.2880  10.1686  10.4160  10.5900

          k = 0.0000 0.2887 0.1568 (  2005 PWs)   bands (ev):

   -40.1076 -40.0737 -19.1345 -19.0125 -18.9816 -18.9193 -18.8622 -18.8609
     5.3620   7.4487   8.7220   9.3645  10.0233  10.3052  10.6393

          k = 0.0000 0.2887 0.2353 (  2014 PWs)   bands (ev):

   -40.0998 -40.0815 -19.1125 -19.0450 -18.9500 -18.9063 -18.8828 -18.8754
     5.7616   6.8693   8.9491   9.4021   9.8645  10.1359  10.7398

          k = 0.0000 0.2887-0.3137 (  2006 PWs)   bands (ev):

   -40.0907 -40.0907 -19.0812 -19.0812 -18.9140 -18.9140 -18.8908 -18.8908
     6.2803   6.2803   9.2211   9.2211   9.9391   9.9391  10.8922

          k = 0.0000 0.3849 0.0000 (  2002 PWs)   bands (ev):

   -40.1003 -40.0634 -19.1052 -19.0952 -19.0332 -18.9516 -18.8712 -18.8618
     5.8665   8.1973   8.3432   8.9209  10.2209  10.2288  10.3651

          k = 0.0000 0.3849 0.0784 (  2016 PWs)   bands (ev):

   -40.0989 -40.0648 -19.1318 -19.0644 -19.0376 -18.9482 -18.8712 -18.8653
     5.9337   8.0532   8.4138   8.9625  10.0765  10.3071  10.4144

          k = 0.0000 0.3849 0.1568 (  2015 PWs)   bands (ev):

   -40.0949 -40.0688 -19.1485 -19.0771 -19.0040 -18.9385 -18.8754 -18.8751
     6.1306   7.7184   8.5753   9.0508   9.9311  10.2567  10.5592

          k = 0.0000 0.3849 0.2353 (  2016 PWs)   bands (ev):

   -40.0889 -40.0748 -19.1488 -19.1075 -18.9581 -18.9241 -18.8903 -18.8897
     6.4423   7.2877   8.7976   9.1049   9.8437  10.0878  10.7887

          k = 0.0000 0.3849-0.3137 (  2020 PWs)   bands (ev):

   -40.0819 -40.0819 -19.1339 -19.1339 -18.9185 -18.9185 -18.9069 -18.9069
     6.8419   6.8419   9.0127   9.0127   9.9048   9.9048  11.0828

          k = 0.0000 0.4811 0.0000 (  2016 PWs)   bands (ev):

   -40.0885 -40.0623 -19.1467 -19.0802 -19.0640 -18.9663 -18.8984 -18.8706
     6.7203   8.0317   8.1876   8.6692  10.0581  10.2241  10.4340

          k = 0.0000 0.4811 0.0784 (  2018 PWs)   bands (ev):

   -40.0875 -40.0633 -19.1608 -19.0941 -19.0391 -18.9627 -18.8950 -18.8742
     6.7524   7.9345   8.2867   8.7004  10.0625  10.2859  10.3877

          k = 0.0000 0.4811 0.1568 (  2013 PWs)   bands (ev):

   -40.0847 -40.0661 -19.1795 -19.1225 -18.9950 -18.9524 -18.8912 -18.8847
     6.8503   7.7377   8.4797   8.7982  10.0486  10.2645  10.4682

          k = 0.0000 0.4811 0.2353 (  2026 PWs)   bands (ev):

   -40.0804 -40.0704 -19.1858 -19.1533 -18.9516 -18.9370 -18.9003 -18.8972
     7.0135   7.4884   8.7102   8.9089   9.9916  10.1131  10.7606

          k = 0.0000 0.4811-0.3137 (  2012 PWs)   bands (ev):

   -40.0754 -40.0754 -19.1763 -19.1763 -18.9186 -18.9186 -18.9174 -18.9174
     7.2340   7.2340   8.8924   8.8924   9.9947   9.9948  11.1440

          k = 0.0000-0.5774 0.0000 (  2008 PWs)   bands (ev):

   -40.0836 -40.0626 -19.1655 -19.0971 -19.0445 -18.9716 -18.9126 -18.8738
     7.2376   7.7936   8.1349   8.5537   9.9972  10.1749  10.5331

          k = 0.0000-0.5774 0.0784 (  2016 PWs)   bands (ev):

   -40.0828 -40.0634 -19.1767 -19.1098 -19.0257 -18.9679 -18.9073 -18.8775
     7.2181   7.7701   8.2448   8.5524  10.0510  10.2401  10.4621

          k = 0.0000-0.5774 0.1568 (  2010 PWs)   bands (ev):

   -40.0805 -40.0656 -19.1938 -19.1389 -18.9863 -18.9574 -18.8995 -18.8882
     7.2047   7.6768   8.5059   8.6057  10.1446  10.2825  10.4328

          k = 0.0000-0.5774 0.2353 (  2030 PWs)   bands (ev):

   -40.0771 -40.0690 -19.2007 -19.1699 -18.9467 -18.9417 -18.9042 -18.9007
     7.2489   7.5205   8.7443   8.7737  10.0988  10.1514  10.7431

          k = 0.0000-0.5774-0.3137 (  2032 PWs)   bands (ev):

   -40.0731 -40.0731 -19.1924 -19.1924 -18.9230 -18.9230 -18.9164 -18.9164
     7.3614   7.3614   8.8608   8.8608  10.0673  10.0675  11.1524

          k = 0.0833 0.1443 0.0000 (  1999 PWs)   bands (ev):

   -40.1307 -40.0721 -19.1959 -18.9367 -18.9129 -18.8764 -18.8393 -18.8234
     4.2001   7.5210   8.9803   9.7938  10.4958  10.7002  10.7701

          k = 0.0833 0.1443 0.0784 (  1996 PWs)   bands (ev):

   -40.1284 -40.0744 -19.1836 -18.9330 -18.9123 -18.8844 -18.8419 -18.8300
     4.2967   7.3653   8.9612   9.8088  10.5050  10.5196  10.5936

          k = 0.0833 0.1443 0.1568 (  1988 PWs)   bands (ev):

   -40.1221 -40.0807 -19.1487 -18.9261 -18.9225 -18.8944 -18.8492 -18.8459
     4.5808   6.9116   9.0124   9.8571  10.2083  10.4439  10.5016

          k = 0.0833 0.1443 0.2353 (  2006 PWs)   bands (ev):

   -40.1127 -40.0903 -19.0964 -18.9736 -18.9069 -18.8877 -18.8646 -18.8600
     5.0331   6.2785   9.2049   9.8225   9.9986  10.2963  10.4871

          k = 0.0833 0.1443-0.3137 (  2004 PWs)   bands (ev):

   -40.1015 -40.1015 -19.0346 -19.0346 -18.8891 -18.8891 -18.8712 -18.8712
     5.6187   5.6187   9.4982   9.4982  10.1272  10.1274  10.5432

          k = 0.0833 0.2406 0.0000 (  2010 PWs)   bands (ev):

   -40.1194 -40.0682 -19.1641 -18.9918 -18.9579 -18.9106 -18.8523 -18.8385
     4.7629   7.9186   8.7036   9.3830  10.2662  10.4718  10.7634

          k = 0.0833 0.2406 0.0784 (  2011 PWs)   bands (ev):

   -40.1175 -40.0701 -19.1569 -18.9858 -18.9620 -18.9138 -18.8555 -18.8418
     4.8526   7.7646   8.7015   9.4106  10.2756  10.3928  10.6865

          k = 0.0833 0.2406 0.1568 (  2008 PWs)   bands (ev):

   -40.1120 -40.0757 -19.1358 -18.9866 -18.9628 -18.9145 -18.8642 -18.8529
     5.1161   7.3126   8.7985   9.4860  10.0971  10.3115  10.6367

          k = 0.0833 0.2406 0.2353 (  2012 PWs)   bands (ev):

   -40.1037 -40.0841 -19.1031 -19.0209 -18.9380 -18.9079 -18.8775 -18.8706
     5.5364   6.7035   9.0220   9.5300   9.8828  10.1516  10.6885

          k = 0.0833 0.2406-0.3137 (  2010 PWs)   bands (ev):

   -40.0939 -40.0939 -19.0628 -19.0628 -18.9117 -18.9117 -18.8847 -18.8847
     6.0827   6.0827   9.3126   9.3127   9.9572   9.9573  10.7937

          k = 0.0833 0.3368 0.0000 (  2015 PWs)   bands (ev):

   -40.1057 -40.0644 -19.1226 -19.0600 -19.0127 -18.9422 -18.8663 -18.8608
     5.5315   8.2384   8.4507   9.0065  10.1620  10.2159  10.5204

          k = 0.0833 0.3368 0.0784 (  2012 PWs)   bands (ev):

   -40.1041 -40.0660 -19.1295 -19.0462 -19.0162 -18.9420 -18.8711 -18.8597
     5.6081   8.0872   8.4947   9.0442  10.0725  10.2816  10.5034

          k = 0.0833 0.3368 0.1568 (  2014 PWs)   bands (ev):

   -40.0997 -40.0705 -19.1351 -19.0518 -18.9958 -18.9372 -18.8817 -18.8635
     5.8329   7.6880   8.6434   9.1342   9.9301  10.2308  10.5733

          k = 0.0833 0.3368 0.2353 (  2015 PWs)   bands (ev):

   -40.0930 -40.0772 -19.1282 -19.0804 -18.9576 -18.9265 -18.8956 -18.8771
     6.1903   7.1747   8.8690   9.2066   9.7962  10.0385  10.7627

          k = 0.0833 0.3368-0.3137 (  2010 PWs)   bands (ev):

   -40.0851 -40.0851 -19.1086 -19.1086 -18.9278 -18.9278 -18.8963 -18.8963
     6.6525   6.6525   9.1048   9.1048   9.8405   9.8405  10.9995

          k = 0.0833 0.4330 0.0000 (  2018 PWs)   bands (ev):

   -40.0925 -40.0624 -19.1204 -19.0785 -19.0606 -18.9666 -18.8883 -18.8782
     6.3969   8.2118   8.2692   8.7402  10.0478  10.2886  10.3315

          k = 0.0833 0.4330 0.0784 (  2011 PWs)   bands (ev):

   -40.0914 -40.0636 -19.1395 -19.0787 -19.0431 -18.9640 -18.8896 -18.8775
     6.4494   8.0777   8.3642   8.7916   9.9962  10.2718  10.3752

          k = 0.0833 0.4330 0.1568 (  2019 PWs)   bands (ev):

   -40.0881 -40.0668 -19.1594 -19.1029 -19.0013 -18.9537 -18.8986 -18.8762
     6.6031   7.8228   8.5332   8.9046   9.8924  10.1644  10.5281

          k = 0.0833 0.4330 0.2353 (  2018 PWs)   bands (ev):

   -40.0832 -40.0717 -19.1649 -19.1319 -18.9650 -18.9354 -18.9116 -18.8830
     6.8460   7.4975   8.7563   8.9987   9.8053   9.9781  10.7787

          k = 0.0833 0.4330-0.3137 (  2028 PWs)   bands (ev):

   -40.0775 -40.0775 -19.1548 -19.1548 -18.9401 -18.9401 -18.9011 -18.9011
     7.1557   7.1557   8.9539   8.9539   9.8224   9.8224  11.1037

          k = 0.0833 0.5292 0.0000 (  2016 PWs)   bands (ev):

   -40.0836 -40.0625 -19.1553 -19.0882 -19.0449 -18.9801 -18.9123 -18.8851
     7.1586   7.9580   8.1764   8.5529   9.9816  10.1332  10.5284

          k = 0.0833 0.5292 0.0784 (  2016 PWs)   bands (ev):

   -40.0828 -40.0633 -19.1665 -19.1014 -19.0276 -18.9745 -18.9093 -18.8863
     7.1641   7.9059   8.2779   8.5758   9.9962  10.1402  10.5155

          k = 0.0833 0.5292 0.1568 (  2019 PWs)   bands (ev):

   -40.0805 -40.0656 -19.1836 -19.1305 -18.9966 -18.9564 -18.9122 -18.8857
     7.1973   7.7798   8.4960   8.6820   9.9958  10.0777  10.5881

          k = 0.0833 0.5292 0.2353 (  2021 PWs)   bands (ev):

   -40.0771 -40.0690 -19.1906 -19.1609 -18.9704 -18.9317 -18.9231 -18.8877
     7.2824   7.6036   8.7344   8.8559   9.8910   9.9599  10.8307

          k = 0.0833 0.5292-0.3137 (  2024 PWs)   bands (ev):

   -40.0731 -40.0731 -19.1828 -19.1828 -18.9479 -18.9479 -18.9015 -18.9015
     7.4242   7.4242   8.9018   8.9018   9.8525   9.8525  11.1806

          k = 0.1667 0.2887 0.0000 (  2023 PWs)   bands (ev):

   -40.1076 -40.0649 -19.1287 -19.0299 -19.0223 -18.9309 -18.8760 -18.8574
     5.4175   8.2741   8.5050   9.0115  10.1525  10.1719  10.6089

          k = 0.1667 0.2887 0.0784 (  2021 PWs)   bands (ev):

   -40.1060 -40.0665 -19.1306 -19.0264 -19.0166 -18.9360 -18.8790 -18.8566
     5.4973   8.1180   8.5368   9.0451  10.1216  10.2017  10.5543

          k = 0.1667 0.2887 0.1568 (  2023 PWs)   bands (ev):

   -40.1014 -40.0711 -19.1296 -19.0418 -18.9854 -18.9417 -18.8871 -18.8600
     5.7318   7.6888   8.6797   9.1378   9.9722  10.1925  10.5464

          k = 0.1667 0.2887 0.2353 (  2022 PWs)   bands (ev):

   -40.0944 -40.0781 -19.1185 -19.0683 -18.9511 -18.9386 -18.8965 -18.8733
     6.1053   7.1412   8.9074   9.2353   9.7895   9.9979  10.7200

          k = 0.1667 0.2887-0.3137 (  2004 PWs)   bands (ev):

   -40.0863 -40.0863 -19.0966 -19.0966 -18.9339 -18.9339 -18.8926 -18.8926
     6.5900   6.5900   9.1508   9.1508   9.7975   9.7976  10.9433

          k = 0.1667 0.3849 0.0000 (  2021 PWs)   bands (ev):

   -40.0947 -40.0626 -19.0864 -19.0857 -19.0567 -18.9634 -18.8985 -18.8830
     6.2302   8.3554   8.4312   8.7112   9.9596  10.2385  10.3676

          k = 0.1667 0.3849 0.0784 (  2022 PWs)   bands (ev):

   -40.0935 -40.0638 -19.1161 -19.0767 -19.0328 -18.9681 -18.9027 -18.8772
     6.2936   8.2355   8.4910   8.7564   9.9232  10.2625  10.3172

          k = 0.1667 0.3849 0.1568 (  2026 PWs)   bands (ev):

   -40.0900 -40.0673 -19.1366 -19.0907 -18.9944 -18.9690 -18.9112 -18.8715
     6.4792   7.9456   8.6359   8.8652   9.8273  10.0841  10.4427

          k = 0.1667 0.3849 0.2353 (  2020 PWs)   bands (ev):

   -40.0848 -40.0725 -19.1422 -19.1131 -18.9736 -18.9548 -18.9131 -18.8764
     6.7721   7.5570   8.8377   8.9908   9.6991   9.8413  10.6756

          k = 0.1667 0.3849-0.3137 (  2018 PWs)   bands (ev):

   -40.0786 -40.0786 -19.1330 -19.1330 -18.9597 -18.9597 -18.8938 -18.8938
     7.1454   7.1454   9.0060   9.0060   9.6682   9.6682  10.9841

          k = 0.1667 0.4811 0.0000 (  2023 PWs)   bands (ev):

   -40.0837 -40.0625 -19.1288 -19.0730 -19.0456 -18.9948 -18.9136 -18.9116
     7.0588   8.2577   8.2692   8.5425   9.8760  10.1174  10.4961

          k = 0.1667 0.4811 0.0784 (  2025 PWs)   bands (ev):

   -40.0829 -40.0633 -19.1393 -19.0896 -19.0277 -18.9894 -18.9227 -18.8985
     7.0944   8.1566   8.3602   8.6142   9.8477  10.0543  10.5145

          k = 0.1667 0.4811 0.1568 (  2021 PWs)   bands (ev):

   -40.0806 -40.0656 -19.1570 -19.1152 -19.0136 -18.9646 -18.9313 -18.8848
     7.1990   7.9986   8.5218   8.7745   9.7578   9.8801  10.6025

          k = 0.1667 0.4811 0.2353 (  2018 PWs)   bands (ev):

   -40.0771 -40.0690 -19.1658 -19.1416 -18.9989 -18.9623 -18.9160 -18.8812
     7.3641   7.7953   8.7498   8.9427   9.6284   9.6488  10.7897

          k = 0.1667 0.4811-0.3137 (  2016 PWs)   bands (ev):

   -40.0731 -40.0731 -19.1603 -19.1603 -18.9802 -18.9802 -18.8923 -18.8923
     7.5723   7.5723   8.9572   8.9572   9.5343   9.5343  11.0738

          k = 0.1667 0.5774 0.0000 (  2007 PWs)   bands (ev):

   -40.0787 -40.0633 -19.1443 -19.0773 -19.0248 -19.0082 -18.9279 -18.9189
     7.5646   8.0382   8.2420   8.4476   9.9188   9.9521  10.6243

          k = 0.1667 0.5774 0.0784 (  2023 PWs)   bands (ev):

   -40.0781 -40.0639 -19.1527 -19.0911 -19.0302 -18.9848 -18.9346 -18.9080
     7.5574   8.0249   8.3326   8.4806   9.8818   9.9165  10.6375

          k = 0.1667 0.5774 0.1568 (  2025 PWs)   bands (ev):

   -40.0765 -40.0656 -19.1679 -19.1211 -19.0243 -18.9478 -18.9476 -18.8918
     7.5653   7.9631   8.5616   8.6021   9.7741   9.7842  10.7152

          k = 0.1667 0.5774 0.2353 (  2023 PWs)   bands (ev):

   -40.0740 -40.0681 -19.1760 -19.1507 -19.0085 -18.9665 -18.9138 -18.8842
     7.6205   7.8503   8.8091   8.8432   9.5654   9.6013  10.8933

          k = 0.1667 0.5774-0.3137 (  2030 PWs)   bands (ev):

   -40.0710 -40.0710 -19.1704 -19.1704 -18.9879 -18.9879 -18.8914 -18.8914
     7.7233   7.7233   8.9870   8.9870   9.4412   9.4412  11.1625

          k = 0.2500 0.4330 0.0000 (  2027 PWs)   bands (ev):

   -40.0837 -40.0624 -19.1060 -19.0762 -19.0459 -18.9942 -18.9345 -18.9114
     7.0223   8.3220   8.4523   8.4931   9.8003  10.1272  10.4629

          k = 0.2500 0.4330 0.0784 (  2029 PWs)   bands (ev):

   -40.0829 -40.0632 -19.1081 -19.1043 -19.0136 -19.0044 -18.9369 -18.9007
     7.0694   8.2596   8.4895   8.5689   9.7841  10.0229  10.4732

          k = 0.2500 0.4330 0.1568 (  2026 PWs)   bands (ev):

   -40.0806 -40.0655 -19.1328 -19.1173 -19.0155 -18.9805 -18.9364 -18.8848
     7.2052   8.1209   8.5990   8.7268   9.7170   9.7798  10.5303

          k = 0.2500 0.4330 0.2353 (  2014 PWs)   bands (ev):

   -40.0771 -40.0690 -19.1471 -19.1334 -19.0116 -18.9816 -18.9132 -18.8795
     7.4133   7.9151   8.7689   8.9029   9.5226   9.5806  10.6897

          k = 0.2500 0.4330-0.3137 (  2008 PWs)   bands (ev):

   -40.0731 -40.0731 -19.1463 -19.1463 -18.9973 -18.9973 -18.8895 -18.8895
     7.6640   7.6640   8.9364   8.9364   9.4408   9.4408  10.9746

          k = 0.2500 0.5292 0.0000 (  2027 PWs)   bands (ev):

   -40.0753 -40.0644 -19.1212 -19.0650 -19.0289 -19.0096 -18.9573 -18.9406
     7.7165   8.2682   8.3245   8.3871   9.7742   9.9017  10.6868

          k = 0.2500 0.5292 0.0784 (  2028 PWs)   bands (ev):

   -40.0749 -40.0648 -19.1243 -19.0839 -19.0443 -18.9843 -18.9616 -18.9239
     7.7451   8.2420   8.3556   8.4759   9.7336   9.8066  10.6910

          k = 0.2500 0.5292 0.1568 (  2022 PWs)   bands (ev):

   -40.0737 -40.0660 -19.1366 -19.1110 -19.0540 -18.9834 -18.9367 -18.8995
     7.8242   8.1987   8.4788   8.6588   9.5565   9.6195  10.7264

          k = 0.2500 0.5292 0.2353 (  2019 PWs)   bands (ev):

   -40.0719 -40.0677 -19.1489 -19.1351 -19.0440 -19.0022 -18.9050 -18.8851
     7.9343   8.1389   8.6824   8.8959   9.2565   9.4160  10.8406

          k = 0.2500 0.5292-0.3137 (  2020 PWs)   bands (ev):

   -40.0698 -40.0698 -19.1492 -19.1492 -19.0241 -19.0241 -18.8867 -18.8867
     8.0480   8.0480   8.9469   8.9469   9.1657   9.1657  11.0700

          k = 0.3333 0.5774 0.0000 (  2037 PWs)   bands (ev):

   -40.0687 -40.0687 -19.1118 -19.0503 -19.0503 -18.9830 -18.9739 -18.9739
     8.1674   8.1674   8.2701   8.3613   9.7706   9.7706  10.7815

          k = 0.3333 0.5774 0.0784 (  2013 PWs)   bands (ev):

   -40.0687 -40.0687 -19.1068 -19.0717 -19.0717 -18.9879 -18.9520 -18.9520
     8.2134   8.2134   8.2892   8.3796   9.6929   9.6929  10.7803

          k = 0.3333 0.5774 0.1568 (  2016 PWs)   bands (ev):

   -40.0687 -40.0687 -19.1049 -19.1049 -19.0931 -19.0020 -18.9181 -18.9181
     8.3396   8.3441   8.3441   8.4215   9.4921   9.4921  10.7974

          k = 0.3333 0.5774 0.2353 (  2019 PWs)   bands (ev):

   -40.0687 -40.0687 -19.1289 -19.1289 -19.0723 -19.0231 -18.8936 -18.8936
     8.4023   8.4545   8.5327   8.5327   9.2413   9.2413  10.8838

          k = 0.3333 0.5774-0.3137 (  2034 PWs)   bands (ev):

   -40.0687 -40.0687 -19.1375 -19.1375 -19.0478 -19.0478 -18.8848 -18.8848
     8.4486   8.4486   8.6644   8.6644   9.0857   9.0857  11.0880

     the Fermi energy is     8.8249 ev

!    total energy              =    -306.86524399 Ry
     total all-electron energy =     -3050.006015 Ry
     estimated scf accuracy    <          1.1E-09 Ry
     smearing contrib. (-TS)   =      -0.00103893 Ry
     internal energy E=F+TS    =    -306.86420507 Ry

     The total energy is F=E-TS. E is the sum of the following terms:
     one-electron contribution =     -74.38452303 Ry
     hartree contribution      =      42.27666122 Ry
     xc contribution           =     -34.52929439 Ry
     ewald contribution        =    -126.46581261 Ry
     one-center paw contrib.   =    -113.76123626 Ry

     convergence has been achieved in   7 iterations

     Writing all to output data dir sc_rhocut.out/scandium.save/

     init_run     :      0.58s CPU      0.60s WALL (       1 calls)
     electrons    :     13.76s CPU     14.62s WALL (       1 calls)

     Called by init_run:
     wfcinit      :      0.40s CPU      0.42s WALL (       1 calls)
     potinit      :      0.05s CPU      0.05s WALL (       1 calls)
     hinit0       :      0.10s CPU      0.10s WALL (       1 calls)

     Called by electrons:
     c_bands      :     12.40s CPU     13.16s WALL (       8 calls)
     sum_band     :      1.06s CPU      1.10s WALL (       8 calls)
     v_of_rho     :      0.01s CPU      0.01s WALL (       8 calls)
     newd         :      0.08s CPU      0.08s WALL (       8 calls)
     PAW_pot      :      0.24s CPU      0.24s WALL (       8 calls)
     mix_rho      :      0.00s CPU      0.00s WALL (       8 calls)

     Called by c_bands:
     init_us_2    :      0.10s CPU      0.10s WALL (    1615 calls)
     init_us_2:cp :      0.09s CPU      0.10s WALL (    1615 calls)
     cegterg      :     12.15s CPU     12.63s WALL (     760 calls)

     Called by *egterg:
     cdiaghg      :      1.98s CPU      2.04s WALL (    6739 calls)
     h_psi        :      8.15s CPU      8.52s WALL (    6929 calls)
     s_psi        :      0.43s CPU      0.44s WALL (    6929 calls)
     g_psi        :      0.04s CPU      0.04s WALL (    6074 calls)

     Called by h_psi:
     h_psi:calbec :      0.59s CPU      0.61s WALL (    6929 calls)
     vloc_psi     :      7.08s CPU      7.40s WALL (    6929 calls)
     add_vuspsi   :      0.43s CPU      0.45s WALL (    6929 calls)

     General routines
     calbec       :      0.68s CPU      0.72s WALL (    7689 calls)
     fft          :      0.01s CPU      0.01s WALL (      47 calls)
     ffts         :      0.00s CPU      0.00s WALL (      16 calls)
     fftw         :      7.22s CPU      7.54s WALL (  116628 calls)
     interpolate  :      0.00s CPU      0.00s WALL (       8 calls)

     Parallel routines

     PWSCF        :     14.69s CPU     15.94s WALL


   This run was terminated on:  14:32:38  26Jul2023            

=------------------------------------------------------------------------------=
   JOB DONE.
=------------------------------------------------------------------------------=
