
     Program PWSCF v.7.2 starts on  7Nov2023 at 10:45:48 

     This program is part of the open-source Quantum ESPRESSO suite
     for quantum simulation of materials; please cite
         "P. Giannozzi et al., J. Phys.:Condens. Matter 21 395502 (2009);
         "P. Giannozzi et al., J. Phys.:Condens. Matter 29 465901 (2017);
         "P. Giannozzi et al., J. Chem. Phys. 152 154105 (2020);
          URL http://www.quantum-espresso.org", 
     in publications or presentations arising from this work. More details at
     http://www.quantum-espresso.org/quote

     Parallel version (MPI), running on    40 processors

     MPI processes distributed on     6 nodes
     297200 MiB available memory on the printing compute node when the environment starts

     Waiting for input...
     Reading input from standard input

     Current dimensions of program PWSCF are:
     Max number of different atomic species (ntypx) = 10
     Max number of k-points (npk) = 120000
     Max angular momentum in pseudopotentials (lmaxx) =  4
     file Sc.pz-spn-kjpaw_psl.1.0.0.UPF: wavefunction(s)  3S 3P 3D renormalized

     K-points division:     npool     =       2
     R & G space division:  proc/nbgrp/npool/nimage =      20
     Subspace diagonalization in iterative solution of the eigenvalue problem:
     a serial algorithm will be used


     Parallelization info
     --------------------
     sticks:   dense  smooth     PW     G-vecs:    dense   smooth      PW
     Min          42      42     12                 1626     1626     256
     Max          43      43     13                 1637     1637     263
     Sum         859     859    253                32631    32631    5203

     Using Slab Decomposition



     bravais-lattice index     =            4
     lattice parameter (alat)  =       6.2531  a.u.
     unit-cell volume          =     337.5249 (a.u.)^3
     number of atoms/cell      =            2
     number of atomic types    =            1
     number of electrons       =        22.00
     number of Kohn-Sham states=           15
     kinetic-energy cutoff     =      80.0000  Ry
     charge density cutoff     =     320.0000  Ry
     scf convergence threshold =      1.0E-08
     mixing beta               =       0.7000
     number of iterations used =            8  plain     mixing
     Exchange-correlation= SLA  PZ   NOGX NOGC
                           (   1   1   0   0   0   0   0)

     celldm(1)=   6.253104  celldm(2)=   0.000000  celldm(3)=   1.594000
     celldm(4)=   0.000000  celldm(5)=   0.000000  celldm(6)=   0.000000

     crystal axes: (cart. coord. in units of alat)
               a(1) = (   1.000000   0.000000   0.000000 )  
               a(2) = (  -0.500000   0.866025   0.000000 )  
               a(3) = (   0.000000   0.000000   1.594000 )  

     reciprocal axes: (cart. coord. in units 2 pi/alat)
               b(1) = (  1.000000  0.577350 -0.000000 )  
               b(2) = (  0.000000  1.154701  0.000000 )  
               b(3) = (  0.000000 -0.000000  0.627353 )  


     PseudoPot. # 1 for Sc read from file:
     ../../../Sc.pz-spn-kjpaw_psl.1.0.0.UPF
     MD5 check sum: 1f9095df0bb42a6568b4e9f256ff075f
     Pseudo is Projector augmented-wave + core cor, Zval = 11.0
     Generated using 'atomic' code by A. Dal Corso  v.7.1
     Shape of augmentation charge: PSQ
     Using radial grid of 1173 points,  6 beta functions with: 
                l(1) =   0
                l(2) =   0
                l(3) =   1
                l(4) =   1
                l(5) =   2
                l(6) =   2
     Q(r) pseudized with 0 coefficients 


     atomic species   valence    mass     pseudopotential
        Sc            11.00    44.59600     Sc( 1.00)

     24 Sym. Ops., with inversion, found (12 have fractional translation)



   Cartesian axes

     site n.     atom                  positions (alat units)
         1           Sc  tau(   1) = (   0.0000000   0.0000000   0.0000000  )
         2           Sc  tau(   2) = (   0.5000000   0.2886751   0.7970000  )

     number of k points=    48  Marzari-Vanderbilt smearing, width (Ry)=  0.0010
                       cart. coord. in units 2pi/alat
        k(    1) = (   0.0000000   0.0000000   0.0000000), wk =   0.0041152
        k(    2) = (   0.0000000   0.0000000   0.1045588), wk =   0.0082305
        k(    3) = (   0.0000000   0.0000000   0.2091175), wk =   0.0082305
        k(    4) = (   0.0000000   0.0000000  -0.3136763), wk =   0.0041152
        k(    5) = (   0.0000000   0.1283001   0.0000000), wk =   0.0246914
        k(    6) = (   0.0000000   0.1283001   0.1045588), wk =   0.0493827
        k(    7) = (   0.0000000   0.1283001   0.2091175), wk =   0.0493827
        k(    8) = (   0.0000000   0.1283001  -0.3136763), wk =   0.0246914
        k(    9) = (   0.0000000   0.2566001   0.0000000), wk =   0.0246914
        k(   10) = (   0.0000000   0.2566001   0.1045588), wk =   0.0493827
        k(   11) = (   0.0000000   0.2566001   0.2091175), wk =   0.0493827
        k(   12) = (   0.0000000   0.2566001  -0.3136763), wk =   0.0246914
        k(   13) = (   0.0000000   0.3849002   0.0000000), wk =   0.0246914
        k(   14) = (   0.0000000   0.3849002   0.1045588), wk =   0.0493827
        k(   15) = (   0.0000000   0.3849002   0.2091175), wk =   0.0493827
        k(   16) = (   0.0000000   0.3849002  -0.3136763), wk =   0.0246914
        k(   17) = (   0.0000000   0.5132002   0.0000000), wk =   0.0246914
        k(   18) = (   0.0000000   0.5132002   0.1045588), wk =   0.0493827
        k(   19) = (   0.0000000   0.5132002   0.2091175), wk =   0.0493827
        k(   20) = (   0.0000000   0.5132002  -0.3136763), wk =   0.0246914
        k(   21) = (   0.1111111   0.1924501   0.0000000), wk =   0.0246914
        k(   22) = (   0.1111111   0.1924501   0.1045588), wk =   0.0493827
        k(   23) = (   0.1111111   0.1924501   0.2091175), wk =   0.0493827
        k(   24) = (   0.1111111   0.1924501  -0.3136763), wk =   0.0246914
        k(   25) = (   0.1111111   0.3207501   0.0000000), wk =   0.0493827
        k(   26) = (   0.1111111   0.3207501   0.1045588), wk =   0.0987654
        k(   27) = (   0.1111111   0.3207501   0.2091175), wk =   0.0987654
        k(   28) = (   0.1111111   0.3207501  -0.3136763), wk =   0.0493827
        k(   29) = (   0.1111111   0.4490502   0.0000000), wk =   0.0493827
        k(   30) = (   0.1111111   0.4490502   0.1045588), wk =   0.0987654
        k(   31) = (   0.1111111   0.4490502   0.2091175), wk =   0.0987654
        k(   32) = (   0.1111111   0.4490502  -0.3136763), wk =   0.0493827
        k(   33) = (   0.1111111   0.5773503   0.0000000), wk =   0.0246914
        k(   34) = (   0.1111111   0.5773503   0.1045588), wk =   0.0493827
        k(   35) = (   0.1111111   0.5773503   0.2091175), wk =   0.0493827
        k(   36) = (   0.1111111   0.5773503  -0.3136763), wk =   0.0246914
        k(   37) = (   0.2222222   0.3849002   0.0000000), wk =   0.0246914
        k(   38) = (   0.2222222   0.3849002   0.1045588), wk =   0.0493827
        k(   39) = (   0.2222222   0.3849002   0.2091175), wk =   0.0493827
        k(   40) = (   0.2222222   0.3849002  -0.3136763), wk =   0.0246914
        k(   41) = (   0.2222222   0.5132002   0.0000000), wk =   0.0493827
        k(   42) = (   0.2222222   0.5132002   0.1045588), wk =   0.0987654
        k(   43) = (   0.2222222   0.5132002   0.2091175), wk =   0.0987654
        k(   44) = (   0.2222222   0.5132002  -0.3136763), wk =   0.0493827
        k(   45) = (   0.3333333   0.5773503   0.0000000), wk =   0.0082305
        k(   46) = (   0.3333333   0.5773503   0.1045588), wk =   0.0164609
        k(   47) = (   0.3333333   0.5773503   0.2091175), wk =   0.0164609
        k(   48) = (   0.3333333   0.5773503  -0.3136763), wk =   0.0082305

     Dense  grid:    32631 G-vectors     FFT dimensions: (  36,  36,  60)

     Estimated max dynamical RAM per process >       6.02 MB

     Estimated total dynamical RAM >     232.62 MB

     Check: negative core charge=   -0.000015

     Initial potential from superposition of free atoms

     starting charge      21.9956, renormalised to      22.0000
     Starting wfcs are   20 randomized atomic wfcs
     Checking if some PAW data can be deallocated... 

     total cpu time spent up to now is        0.6 secs

     Self-consistent Calculation

     iteration #  1     ecut=    80.00 Ry     beta= 0.70
     Davidson diagonalization with overlap
     ethr =  1.00E-02,  avg # of iterations =  2.2

     Threshold (ethr) on eigenvalues was too large:
     Diagonalizing with lowered threshold

     Davidson diagonalization with overlap
     c_bands:  3 eigenvalues not converged
     c_bands:  1 eigenvalues not converged
     c_bands:  1 eigenvalues not converged
     c_bands:  1 eigenvalues not converged
     c_bands:  1 eigenvalues not converged
     c_bands:  1 eigenvalues not converged
     c_bands:  4 eigenvalues not converged
     c_bands:  1 eigenvalues not converged
     c_bands:  2 eigenvalues not converged
     ethr =  1.68E-05,  avg # of iterations = 17.6

     total cpu time spent up to now is        3.2 secs

     total energy              =    -306.86669401 Ry
     estimated scf accuracy    <       0.02035860 Ry

     iteration #  2     ecut=    80.00 Ry     beta= 0.70
     Davidson diagonalization with overlap
     ethr =  9.25E-05,  avg # of iterations =  3.6

     total cpu time spent up to now is        3.8 secs

     total energy              =    -306.87147232 Ry
     estimated scf accuracy    <       0.00131927 Ry

     iteration #  3     ecut=    80.00 Ry     beta= 0.70
     Davidson diagonalization with overlap
     c_bands:  1 eigenvalues not converged
     c_bands:  1 eigenvalues not converged
     ethr =  6.00E-06,  avg # of iterations =  9.1

     total cpu time spent up to now is        4.8 secs

     total energy              =    -306.87257497 Ry
     estimated scf accuracy    <       0.00050084 Ry

     iteration #  4     ecut=    80.00 Ry     beta= 0.70
     Davidson diagonalization with overlap
     ethr =  2.28E-06,  avg # of iterations =  5.9

     total cpu time spent up to now is        5.5 secs

     total energy              =    -306.87278971 Ry
     estimated scf accuracy    <       0.00030367 Ry

     iteration #  5     ecut=    80.00 Ry     beta= 0.70
     Davidson diagonalization with overlap
     ethr =  1.38E-06,  avg # of iterations =  4.4

     total cpu time spent up to now is        6.0 secs

     total energy              =    -306.87290498 Ry
     estimated scf accuracy    <       0.00002188 Ry

     iteration #  6     ecut=    80.00 Ry     beta= 0.70
     Davidson diagonalization with overlap
     ethr =  9.94E-08,  avg # of iterations =  8.8

     total cpu time spent up to now is        6.8 secs

     total energy              =    -306.87291491 Ry
     estimated scf accuracy    <       0.00003159 Ry

     iteration #  7     ecut=    80.00 Ry     beta= 0.70
     Davidson diagonalization with overlap
     ethr =  9.94E-08,  avg # of iterations =  5.1

     total cpu time spent up to now is        7.4 secs

     total energy              =    -306.87292558 Ry
     estimated scf accuracy    <       0.00000266 Ry

     iteration #  8     ecut=    80.00 Ry     beta= 0.70
     Davidson diagonalization with overlap
     ethr =  1.21E-08,  avg # of iterations =  6.7

     total cpu time spent up to now is        8.1 secs

     total energy              =    -306.87292702 Ry
     estimated scf accuracy    <       0.00000064 Ry

     iteration #  9     ecut=    80.00 Ry     beta= 0.70
     Davidson diagonalization with overlap
     ethr =  2.91E-09,  avg # of iterations =  5.8

     total cpu time spent up to now is        8.7 secs

     total energy              =    -306.87292733 Ry
     estimated scf accuracy    <       0.00000011 Ry

     iteration # 10     ecut=    80.00 Ry     beta= 0.70
     Davidson diagonalization with overlap
     ethr =  4.88E-10,  avg # of iterations =  8.8

     total cpu time spent up to now is        9.6 secs

     End of self-consistent calculation

          k = 0.0000 0.0000 0.0000 (  4055 PWs)   bands (ev):

   -40.1398 -40.0755 -19.2187 -18.8942 -18.8942 -18.8358 -18.8358 -18.8097
     3.7531   7.1390   9.3028  10.3465  10.3465  10.4633  10.7499

          k = 0.0000 0.0000 0.1046 (  4061 PWs)   bands (ev):

   -40.1356 -40.0799 -19.1921 -18.8903 -18.8903 -18.8398 -18.8398 -18.8379
     3.9323   6.8670   9.2628  10.2809  10.2811  10.3496  10.6555

          k = 0.0000 0.0000 0.2091 (  4078 PWs)   bands (ev):

   -40.1238 -40.0917 -19.1190 -18.9145 -18.8797 -18.8797 -18.8505 -18.8505
     4.4482   6.1290   9.3588  10.0461  10.2268  10.2269  10.4570

          k = 0.0000 0.0000-0.3137 (  4060 PWs)   bands (ev):

   -40.1078 -40.1078 -19.0176 -19.0176 -18.8651 -18.8651 -18.8651 -18.8651
     5.2299   5.2299   9.6659   9.6660  10.2884  10.2884  10.2884

          k = 0.0000 0.1283 0.0000 (  4073 PWs)   bands (ev):

   -40.1340 -40.0732 -19.2031 -18.9261 -18.9047 -18.8690 -18.8404 -18.8163
     4.0204   7.3657   9.0926   9.9503  10.5407  10.5699  10.7588

          k = 0.0000 0.1283 0.1046 (  4060 PWs)   bands (ev):

   -40.1300 -40.0773 -19.1795 -18.9208 -18.9004 -18.8833 -18.8448 -18.8323
     4.1949   7.0920   9.0643   9.9622  10.4263  10.4410  10.5560

          k = 0.0000 0.1283 0.2091 (  4065 PWs)   bands (ev):

   -40.1189 -40.0885 -19.1148 -18.9389 -18.9052 -18.8887 -18.8600 -18.8566
     4.6980   6.3513   9.2015   9.9871  10.0423  10.3726  10.3981

          k = 0.0000 0.1283-0.3137 (  4070 PWs)   bands (ev):

   -40.1037 -40.1037 -19.0259 -19.0259 -18.8843 -18.8843 -18.8727 -18.8727
     5.4632   5.4632   9.5545   9.5546  10.1831  10.1834  10.4351

          k = 0.0000 0.2566 0.0000 (  4069 PWs)   bands (ev):

   -40.1188 -40.0677 -19.1605 -19.0076 -18.9506 -18.9302 -18.8531 -18.8363
     4.7753   7.8997   8.6824   9.3785  10.2381  10.5593  10.6485

          k = 0.0000 0.2566 0.1046 (  4071 PWs)   bands (ev):

   -40.1154 -40.0711 -19.1488 -18.9962 -18.9655 -18.9251 -18.8583 -18.8452
     4.9332   7.6292   8.6974   9.4262  10.1977  10.4086  10.6247

          k = 0.0000 0.2566 0.2091 (  4073 PWs)   bands (ev):

   -40.1061 -40.0805 -19.1154 -19.0138 -18.9561 -18.9110 -18.8725 -18.8719
     5.3893   6.9100   8.9149   9.5175   9.9249  10.2219  10.6524

          k = 0.0000 0.2566-0.3137 (  4064 PWs)   bands (ev):

   -40.0933 -40.0933 -19.0664 -19.0664 -18.9125 -18.9125 -18.8918 -18.8918
     6.0866   6.0866   9.2858   9.2859   9.9673   9.9674  10.7900

          k = 0.0000 0.3849 0.0000 (  4090 PWs)   bands (ev):

   -40.0999 -40.0630 -19.1024 -19.1015 -19.0395 -18.9580 -18.8686 -18.8684
     5.8645   8.1828   8.3338   8.9097  10.2087  10.2210  10.3557

          k = 0.0000 0.3849 0.1046 (  4081 PWs)   bands (ev):

   -40.0974 -40.0655 -19.1409 -19.0668 -19.0344 -18.9521 -18.8745 -18.8699
     5.9830   7.9477   8.4463   8.9788  10.0154  10.2963  10.4432

          k = 0.0000 0.3849 0.2091 (  4079 PWs)   bands (ev):

   -40.0907 -40.0722 -19.1530 -19.1015 -18.9741 -18.9358 -18.8910 -18.8832
     6.3233   7.4292   8.7068   9.0866   9.8511  10.1419  10.6948

          k = 0.0000 0.3849-0.3137 (  4070 PWs)   bands (ev):

   -40.0815 -40.0815 -19.1372 -19.1372 -18.9188 -18.9188 -18.9134 -18.9134
     6.8365   6.8365   9.0005   9.0005   9.8949   9.8950  11.0741

          k = 0.0000 0.5132 0.0000 (  4082 PWs)   bands (ev):

   -40.0855 -40.0620 -19.1632 -19.0958 -19.0510 -18.9756 -18.9031 -18.8789
     6.9590   7.9219   8.1469   8.6009  10.0169  10.1871  10.4779

          k = 0.0000 0.5132 0.1046 (  4078 PWs)   bands (ev):

   -40.0839 -40.0635 -19.1807 -19.1168 -19.0180 -18.9692 -18.8970 -18.8854
     6.9843   7.8116   8.3145   8.6368  10.0676  10.3004  10.3723

          k = 0.0000 0.5132 0.2091 (  4076 PWs)   bands (ev):

   -40.0796 -40.0678 -19.1973 -19.1572 -18.9616 -18.9516 -18.9032 -18.8953
     7.0880   7.5700   8.6218   8.8015  10.0696  10.1613  10.6300

          k = 0.0000 0.5132-0.3137 (  4086 PWs)   bands (ev):

   -40.0737 -40.0737 -19.1891 -19.1891 -18.9275 -18.9275 -18.9163 -18.9163
     7.2953   7.2953   8.8629   8.8629  10.0253  10.0273  11.1418

          k = 0.1111 0.1925 0.0000 (  4059 PWs)   bands (ev):

   -40.1235 -40.0693 -19.1740 -18.9739 -18.9492 -18.9027 -18.8552 -18.8296
     4.5329   7.7596   8.8008   9.5164  10.3358  10.5575  10.9516

          k = 0.1111 0.1925 0.1046 (  4065 PWs)   bands (ev):

   -40.1199 -40.0729 -19.1574 -18.9646 -18.9544 -18.9100 -18.8600 -18.8392
     4.6970   7.4852   8.7975   9.5589  10.3318  10.3734  10.6463

          k = 0.1111 0.1925 0.2091 (  4058 PWs)   bands (ev):

   -40.1100 -40.0829 -19.1121 -18.9893 -18.9394 -18.9097 -18.8727 -18.8644
     5.1711   6.7491   8.9935   9.6519   9.9574  10.2483  10.6004

          k = 0.1111 0.1925-0.3137 (  4064 PWs)   bands (ev):

   -40.0964 -40.0964 -19.0499 -19.0499 -18.9086 -18.9086 -18.8858 -18.8858
     5.8956   5.8956   9.3746   9.3746  10.0015  10.0017  10.6885

          k = 0.1111 0.3208 0.0000 (  4073 PWs)   bands (ev):

   -40.1063 -40.0642 -19.1231 -19.0542 -19.0195 -18.9436 -18.8771 -18.8563
     5.4671   8.2444   8.4714   8.9978  10.1416  10.1846  10.5593

          k = 0.1111 0.3208 0.1046 (  4072 PWs)   bands (ev):

   -40.1035 -40.0671 -19.1306 -19.0418 -19.0149 -18.9461 -18.8835 -18.8573
     5.6056   7.9786   8.5424   9.0595  10.0366  10.2510  10.5106

          k = 0.1111 0.3208 0.2091 (  4075 PWs)   bands (ev):

   -40.0958 -40.0748 -19.1284 -19.0680 -18.9699 -18.9397 -18.8984 -18.8704
     6.0051   7.3329   8.7953   9.1916   9.8230  10.0788  10.6646

          k = 0.1111 0.3208-0.3137 (  4078 PWs)   bands (ev):

   -40.0853 -40.0853 -19.1047 -19.1047 -18.9347 -18.9347 -18.8981 -18.8981
     6.6142   6.6142   9.1164   9.1165   9.8063   9.8066  10.9609

          k = 0.1111 0.4491 0.0000 (  4071 PWs)   bands (ev):

   -40.0892 -40.0619 -19.1314 -19.0732 -19.0653 -18.9810 -18.8947 -18.8927
     6.6040   8.2115   8.2499   8.6626   9.9757  10.2346  10.3685

          k = 0.1111 0.4491 0.1046 (  4088 PWs)   bands (ev):

   -40.0874 -40.0637 -19.1525 -19.0962 -19.0259 -18.9752 -18.9060 -18.8822
     6.6863   8.0224   8.3940   8.7579   9.9109  10.1733  10.4314

          k = 0.1111 0.4491 0.2091 (  4076 PWs)   bands (ev):

   -40.0824 -40.0687 -19.1702 -19.1323 -18.9850 -18.9486 -18.9213 -18.8800
     6.9226   7.6787   8.6618   8.9331   9.7782   9.9458  10.6806

          k = 0.1111 0.4491-0.3137 (  4078 PWs)   bands (ev):

   -40.0755 -40.0755 -19.1623 -19.1623 -18.9567 -18.9567 -18.8996 -18.8996
     7.2771   7.2771   8.9372   8.9372   9.7370   9.7371  11.0874

          k = 0.1111 0.5774 0.0000 (  4077 PWs)   bands (ev):

   -40.0809 -40.0624 -19.1618 -19.0942 -19.0328 -18.9955 -18.9167 -18.9017
     7.3839   7.9026   8.1748   8.4932   9.9533  10.0535  10.5634

          k = 0.1111 0.5774 0.1046 (  4077 PWs)   bands (ev):

   -40.0797 -40.0637 -19.1765 -19.1154 -19.0180 -18.9768 -18.9204 -18.8952
     7.3616   7.8659   8.3523   8.5264   9.9605  10.0238  10.5741

          k = 0.1111 0.5774 0.2091 (  4077 PWs)   bands (ev):

   -40.0763 -40.0670 -19.1925 -19.1558 -18.9936 -18.9388 -18.9339 -18.8865
     7.3856   7.7147   8.7041   8.7271   9.8290   9.8938  10.7776

          k = 0.1111 0.5774-0.3137 (  4086 PWs)   bands (ev):

   -40.0716 -40.0716 -19.1861 -19.1861 -18.9657 -18.9657 -18.8985 -18.8985
     7.5173   7.5173   8.9140   8.9141   9.7219   9.7232  11.1909

          k = 0.2222 0.3849 0.0000 (  4095 PWs)   bands (ev):

   -40.0906 -40.0619 -19.0934 -19.0765 -19.0707 -18.9779 -18.9199 -18.8889
     6.4804   8.3341   8.4944   8.5833   9.8757  10.2789  10.2887

          k = 0.2222 0.3849 0.1046 (  4094 PWs)   bands (ev):

   -40.0887 -40.0638 -19.1208 -19.0988 -19.0142 -18.9889 -18.9247 -18.8796
     6.5843   8.1883   8.5818   8.6492   9.8408  10.1352  10.3319

          k = 0.2222 0.3849 0.2091 (  4087 PWs)   bands (ev):

   -40.0834 -40.0691 -19.1440 -19.1185 -18.9930 -18.9712 -18.9248 -18.8751
     6.8806   7.8045   8.7971   8.8275   9.7006   9.8095  10.5470

          k = 0.2222 0.3849-0.3137 (  4072 PWs)   bands (ev):

   -40.0762 -40.0762 -19.1404 -19.1404 -18.9792 -18.9792 -18.8936 -18.8936
     7.3194   7.3194   8.9662   8.9662   9.5808   9.5810  10.9475

          k = 0.2222 0.5132 0.0000 (  4091 PWs)   bands (ev):

   -40.0776 -40.0631 -19.1313 -19.0759 -19.0240 -19.0190 -18.9493 -18.9276
     7.5038   8.2586   8.2918   8.4243   9.7896   9.9620  10.6135

          k = 0.2222 0.5132 0.1046 (  4085 PWs)   bands (ev):

   -40.0766 -40.0640 -19.1402 -19.1009 -19.0417 -18.9809 -18.9559 -18.9069
     7.5532   8.1806   8.3843   8.5635   9.7277   9.8109  10.6320

          k = 0.2222 0.5132 0.2091 (  4103 PWs)   bands (ev):

   -40.0739 -40.0667 -19.1576 -19.1351 -19.0388 -18.9884 -18.9200 -18.8856
     7.6900   8.0530   8.6274   8.8428   9.4506   9.5451  10.7516

          k = 0.2222 0.5132-0.3137 (  4090 PWs)   bands (ev):

   -40.0703 -40.0703 -19.1579 -19.1579 -19.0156 -19.0156 -18.8889 -18.8889
     7.8766   7.8766   8.9574   8.9575   9.2693   9.2696  11.0556

          k = 0.3333 0.5774 0.0000 (  4077 PWs)   bands (ev):

   -40.0683 -40.0683 -19.1179 -19.0565 -19.0565 -18.9894 -18.9711 -18.9711
     8.1583   8.1583   8.2589   8.3489   9.7618   9.7618  10.7677

          k = 0.3333 0.5774 0.1046 (  4092 PWs)   bands (ev):

   -40.0683 -40.0683 -19.1094 -19.0873 -19.0873 -18.9981 -18.9398 -18.9398
     8.2391   8.2391   8.2919   8.3801   9.6274   9.6274  10.7682

          k = 0.3333 0.5774 0.2091 (  4083 PWs)   bands (ev):

   -40.0682 -40.0682 -19.1257 -19.1257 -19.0861 -19.0219 -18.9005 -18.9005
     8.3707   8.4352   8.4575   8.4575   9.3150   9.3151  10.8311

          k = 0.3333 0.5774-0.3137 (  4128 PWs)   bands (ev):

   -40.0683 -40.0683 -19.1406 -19.1406 -19.0541 -19.0541 -18.8852 -18.8852
     8.4376   8.4376   8.6552   8.6552   9.0757   9.0757  11.0771

     the Fermi energy is     8.8020 ev

!    total energy              =    -306.87292746 Ry
     total all-electron energy =     -3050.013698 Ry
     estimated scf accuracy    <          1.6E-09 Ry
     smearing contrib. (-TS)   =      -0.00003299 Ry
     internal energy E=F+TS    =    -306.87289447 Ry

     The total energy is F=E-TS. E is the sum of the following terms:
     one-electron contribution =     -74.40702200 Ry
     hartree contribution      =      42.28393807 Ry
     xc contribution           =     -34.52696414 Ry
     ewald contribution        =    -126.46581261 Ry
     one-center paw contrib.   =    -113.75703379 Ry

     convergence has been achieved in  10 iterations

     Writing all to output data dir sc_smearing.out/scandium.save/

     init_run     :      0.39s CPU      0.40s WALL (       1 calls)
     electrons    :      8.60s CPU      8.99s WALL (       1 calls)

     Called by init_run:
     wfcinit      :      0.19s CPU      0.19s WALL (       1 calls)
     potinit      :      0.05s CPU      0.06s WALL (       1 calls)
     hinit0       :      0.12s CPU      0.12s WALL (       1 calls)

     Called by electrons:
     c_bands      :      7.43s CPU      7.76s WALL (      11 calls)
     sum_band     :      0.71s CPU      0.74s WALL (      11 calls)
     v_of_rho     :      0.01s CPU      0.01s WALL (      11 calls)
     newd         :      0.06s CPU      0.07s WALL (      11 calls)
     PAW_pot      :      0.40s CPU      0.40s WALL (      11 calls)
     mix_rho      :      0.01s CPU      0.01s WALL (      11 calls)

     Called by c_bands:
     init_us_2    :      0.09s CPU      0.10s WALL (     552 calls)
     init_us_2:cp :      0.09s CPU      0.10s WALL (     552 calls)
     cegterg      :      6.46s CPU      6.63s WALL (     265 calls)

     Called by *egterg:
     cdiaghg      :      0.68s CPU      0.69s WALL (    2038 calls)
     h_psi        :      4.37s CPU      4.51s WALL (    2087 calls)
     s_psi        :      0.25s CPU      0.25s WALL (    2087 calls)
     g_psi        :      0.02s CPU      0.02s WALL (    1798 calls)

     Called by h_psi:
     h_psi:calbec :      0.46s CPU      0.47s WALL (    2087 calls)
     vloc_psi     :      3.64s CPU      3.75s WALL (    2087 calls)
     add_vuspsi   :      0.25s CPU      0.26s WALL (    2087 calls)

     General routines
     calbec       :      0.55s CPU      0.57s WALL (    2351 calls)
     fft          :      0.01s CPU      0.01s WALL (      45 calls)
     ffts         :      0.00s CPU      0.00s WALL (      11 calls)
     fftw         :      3.80s CPU      3.92s WALL (   36122 calls)

     Parallel routines

     PWSCF        :      9.27s CPU      9.84s WALL


   This run was terminated on:  10:45:58   7Nov2023            

=------------------------------------------------------------------------------=
   JOB DONE.
=------------------------------------------------------------------------------=
