
     Program PWSCF v.7.2 starts on 16Jun2023 at 15:28:35 

     This program is part of the open-source Quantum ESPRESSO suite
     for quantum simulation of materials; please cite
         "P. Giannozzi et al., J. Phys.:Condens. Matter 21 395502 (2009);
         "P. Giannozzi et al., J. Phys.:Condens. Matter 29 465901 (2017);
         "P. Giannozzi et al., J. Chem. Phys. 152 154105 (2020);
          URL http://www.quantum-espresso.org", 
     in publications or presentations arising from this work. More details at
     http://www.quantum-espresso.org/quote

     Parallel version (MPI), running on     1 processors

     MPI processes distributed on     1 nodes
     317391 MiB available memory on the printing compute node when the environment starts

     Waiting for input...
     Reading input from standard input

     Current dimensions of program PWSCF are:
     Max number of different atomic species (ntypx) = 10
     Max number of k-points (npk) = 120000
     Max angular momentum in pseudopotentials (lmaxx) =  4
     file Sc.pz-spn-kjpaw_psl.1.0.0.UPF: wavefunction(s)  3S 3P 3D renormalized

     Subspace diagonalization in iterative solution of the eigenvalue problem:
     a serial algorithm will be used


     G-vector sticks info
     --------------------
     sticks:   dense  smooth     PW     G-vecs:    dense   smooth      PW
     Sum         649     649    199                21181    21181    3489

     Using Slab Decomposition



     bravais-lattice index     =            4
     lattice parameter (alat)  =       6.2531  a.u.
     unit-cell volume          =     337.5249 (a.u.)^3
     number of atoms/cell      =            2
     number of atomic types    =            1
     number of electrons       =        22.00
     number of Kohn-Sham states=           15
     kinetic-energy cutoff     =      60.0000  Ry
     charge density cutoff     =     240.0000  Ry
     scf convergence threshold =      1.0E-08
     mixing beta               =       0.7000
     number of iterations used =            8  plain     mixing
     energy convergence thresh.=      1.0E-04
     force convergence thresh. =      1.0E-03
     press convergence thresh. =      5.0E-01
     Exchange-correlation= SLA  PZ   NOGX NOGC
                           (   1   1   0   0   0   0   0)
     nstep                     =           50


     celldm(1)=   6.253104  celldm(2)=   0.000000  celldm(3)=   1.594000
     celldm(4)=   0.000000  celldm(5)=   0.000000  celldm(6)=   0.000000

     crystal axes: (cart. coord. in units of alat)
               a(1) = (   1.000000   0.000000   0.000000 )  
               a(2) = (  -0.500000   0.866025   0.000000 )  
               a(3) = (   0.000000   0.000000   1.594000 )  

     reciprocal axes: (cart. coord. in units 2 pi/alat)
               b(1) = (  1.000000  0.577350 -0.000000 )  
               b(2) = (  0.000000  1.154701  0.000000 )  
               b(3) = (  0.000000 -0.000000  0.627353 )  


     PseudoPot. # 1 for Sc read from file:
     ../../../Sc.pz-spn-kjpaw_psl.1.0.0.UPF
     MD5 check sum: 1f9095df0bb42a6568b4e9f256ff075f
     Pseudo is Projector augmented-wave + core cor, Zval = 11.0
     Generated using 'atomic' code by A. Dal Corso  v.7.1
     Shape of augmentation charge: PSQ
     Using radial grid of 1173 points,  6 beta functions with: 
                l(1) =   0
                l(2) =   0
                l(3) =   1
                l(4) =   1
                l(5) =   2
                l(6) =   2
     Q(r) pseudized with 0 coefficients 


     atomic species   valence    mass     pseudopotential
        Sc            11.00    44.59600     Sc( 1.00)

     24 Sym. Ops., with inversion, found (12 have fractional translation)



   Cartesian axes

     site n.     atom                  positions (alat units)
         1           Sc  tau(   1) = (   0.0000000   0.0000000   0.0000000  )
         2           Sc  tau(   2) = (   0.5000000   0.2886751   0.7970000  )

     number of k points=    95  Marzari-Vanderbilt smearing, width (Ry)=  0.0200
                       cart. coord. in units 2pi/alat
        k(    1) = (   0.0000000   0.0000000   0.0000000), wk =   0.0017361
        k(    2) = (   0.0000000   0.0000000   0.0784191), wk =   0.0034722
        k(    3) = (   0.0000000   0.0000000   0.1568381), wk =   0.0034722
        k(    4) = (   0.0000000   0.0000000   0.2352572), wk =   0.0034722
        k(    5) = (   0.0000000   0.0000000  -0.3136763), wk =   0.0017361
        k(    6) = (   0.0000000   0.0962250   0.0000000), wk =   0.0104167
        k(    7) = (   0.0000000   0.0962250   0.0784191), wk =   0.0208333
        k(    8) = (   0.0000000   0.0962250   0.1568381), wk =   0.0208333
        k(    9) = (   0.0000000   0.0962250   0.2352572), wk =   0.0208333
        k(   10) = (   0.0000000   0.0962250  -0.3136763), wk =   0.0104167
        k(   11) = (   0.0000000   0.1924501   0.0000000), wk =   0.0104167
        k(   12) = (   0.0000000   0.1924501   0.0784191), wk =   0.0208333
        k(   13) = (   0.0000000   0.1924501   0.1568381), wk =   0.0208333
        k(   14) = (   0.0000000   0.1924501   0.2352572), wk =   0.0208333
        k(   15) = (   0.0000000   0.1924501  -0.3136763), wk =   0.0104167
        k(   16) = (   0.0000000   0.2886751   0.0000000), wk =   0.0104167
        k(   17) = (   0.0000000   0.2886751   0.0784191), wk =   0.0208333
        k(   18) = (   0.0000000   0.2886751   0.1568381), wk =   0.0208333
        k(   19) = (   0.0000000   0.2886751   0.2352572), wk =   0.0208333
        k(   20) = (   0.0000000   0.2886751  -0.3136763), wk =   0.0104167
        k(   21) = (   0.0000000   0.3849002   0.0000000), wk =   0.0104167
        k(   22) = (   0.0000000   0.3849002   0.0784191), wk =   0.0208333
        k(   23) = (   0.0000000   0.3849002   0.1568381), wk =   0.0208333
        k(   24) = (   0.0000000   0.3849002   0.2352572), wk =   0.0208333
        k(   25) = (   0.0000000   0.3849002  -0.3136763), wk =   0.0104167
        k(   26) = (   0.0000000   0.4811252   0.0000000), wk =   0.0104167
        k(   27) = (   0.0000000   0.4811252   0.0784191), wk =   0.0208333
        k(   28) = (   0.0000000   0.4811252   0.1568381), wk =   0.0208333
        k(   29) = (   0.0000000   0.4811252   0.2352572), wk =   0.0208333
        k(   30) = (   0.0000000   0.4811252  -0.3136763), wk =   0.0104167
        k(   31) = (   0.0000000  -0.5773503   0.0000000), wk =   0.0052083
        k(   32) = (   0.0000000  -0.5773503   0.0784191), wk =   0.0104167
        k(   33) = (   0.0000000  -0.5773503   0.1568381), wk =   0.0104167
        k(   34) = (   0.0000000  -0.5773503   0.2352572), wk =   0.0104167
        k(   35) = (   0.0000000  -0.5773503  -0.3136763), wk =   0.0052083
        k(   36) = (   0.0833333   0.1443376   0.0000000), wk =   0.0104167
        k(   37) = (   0.0833333   0.1443376   0.0784191), wk =   0.0208333
        k(   38) = (   0.0833333   0.1443376   0.1568381), wk =   0.0208333
        k(   39) = (   0.0833333   0.1443376   0.2352572), wk =   0.0208333
        k(   40) = (   0.0833333   0.1443376  -0.3136763), wk =   0.0104167
        k(   41) = (   0.0833333   0.2405626   0.0000000), wk =   0.0208333
        k(   42) = (   0.0833333   0.2405626   0.0784191), wk =   0.0416667
        k(   43) = (   0.0833333   0.2405626   0.1568381), wk =   0.0416667
        k(   44) = (   0.0833333   0.2405626   0.2352572), wk =   0.0416667
        k(   45) = (   0.0833333   0.2405626  -0.3136763), wk =   0.0208333
        k(   46) = (   0.0833333   0.3367877   0.0000000), wk =   0.0208333
        k(   47) = (   0.0833333   0.3367877   0.0784191), wk =   0.0416667
        k(   48) = (   0.0833333   0.3367877   0.1568381), wk =   0.0416667
        k(   49) = (   0.0833333   0.3367877   0.2352572), wk =   0.0416667
        k(   50) = (   0.0833333   0.3367877  -0.3136763), wk =   0.0208333
        k(   51) = (   0.0833333   0.4330127   0.0000000), wk =   0.0208333
        k(   52) = (   0.0833333   0.4330127   0.0784191), wk =   0.0416667
        k(   53) = (   0.0833333   0.4330127   0.1568381), wk =   0.0416667
        k(   54) = (   0.0833333   0.4330127   0.2352572), wk =   0.0416667
        k(   55) = (   0.0833333   0.4330127  -0.3136763), wk =   0.0208333
        k(   56) = (   0.0833333   0.5292377   0.0000000), wk =   0.0208333
        k(   57) = (   0.0833333   0.5292377   0.0784191), wk =   0.0416667
        k(   58) = (   0.0833333   0.5292377   0.1568381), wk =   0.0416667
        k(   59) = (   0.0833333   0.5292377   0.2352572), wk =   0.0416667
        k(   60) = (   0.0833333   0.5292377  -0.3136763), wk =   0.0208333
        k(   61) = (   0.1666667   0.2886751   0.0000000), wk =   0.0104167
        k(   62) = (   0.1666667   0.2886751   0.0784191), wk =   0.0208333
        k(   63) = (   0.1666667   0.2886751   0.1568381), wk =   0.0208333
        k(   64) = (   0.1666667   0.2886751   0.2352572), wk =   0.0208333
        k(   65) = (   0.1666667   0.2886751  -0.3136763), wk =   0.0104167
        k(   66) = (   0.1666667   0.3849002   0.0000000), wk =   0.0208333
        k(   67) = (   0.1666667   0.3849002   0.0784191), wk =   0.0416667
        k(   68) = (   0.1666667   0.3849002   0.1568381), wk =   0.0416667
        k(   69) = (   0.1666667   0.3849002   0.2352572), wk =   0.0416667
        k(   70) = (   0.1666667   0.3849002  -0.3136763), wk =   0.0208333
        k(   71) = (   0.1666667   0.4811252   0.0000000), wk =   0.0208333
        k(   72) = (   0.1666667   0.4811252   0.0784191), wk =   0.0416667
        k(   73) = (   0.1666667   0.4811252   0.1568381), wk =   0.0416667
        k(   74) = (   0.1666667   0.4811252   0.2352572), wk =   0.0416667
        k(   75) = (   0.1666667   0.4811252  -0.3136763), wk =   0.0208333
        k(   76) = (   0.1666667   0.5773503   0.0000000), wk =   0.0104167
        k(   77) = (   0.1666667   0.5773503   0.0784191), wk =   0.0208333
        k(   78) = (   0.1666667   0.5773503   0.1568381), wk =   0.0208333
        k(   79) = (   0.1666667   0.5773503   0.2352572), wk =   0.0208333
        k(   80) = (   0.1666667   0.5773503  -0.3136763), wk =   0.0104167
        k(   81) = (   0.2500000   0.4330127   0.0000000), wk =   0.0104167
        k(   82) = (   0.2500000   0.4330127   0.0784191), wk =   0.0208333
        k(   83) = (   0.2500000   0.4330127   0.1568381), wk =   0.0208333
        k(   84) = (   0.2500000   0.4330127   0.2352572), wk =   0.0208333
        k(   85) = (   0.2500000   0.4330127  -0.3136763), wk =   0.0104167
        k(   86) = (   0.2500000   0.5292377   0.0000000), wk =   0.0208333
        k(   87) = (   0.2500000   0.5292377   0.0784191), wk =   0.0416667
        k(   88) = (   0.2500000   0.5292377   0.1568381), wk =   0.0416667
        k(   89) = (   0.2500000   0.5292377   0.2352572), wk =   0.0416667
        k(   90) = (   0.2500000   0.5292377  -0.3136763), wk =   0.0208333
        k(   91) = (   0.3333333   0.5773503   0.0000000), wk =   0.0034722
        k(   92) = (   0.3333333   0.5773503   0.0784191), wk =   0.0069444
        k(   93) = (   0.3333333   0.5773503   0.1568381), wk =   0.0069444
        k(   94) = (   0.3333333   0.5773503   0.2352572), wk =   0.0069444
        k(   95) = (   0.3333333   0.5773503  -0.3136763), wk =   0.0034722

     Dense  grid:    21181 G-vectors     FFT dimensions: (  36,  36,  50)

     Estimated max dynamical RAM per process >     140.37 MB

     Check: negative core charge=   -0.000032

     Initial potential from superposition of free atoms

     starting charge      21.9956, renormalised to      22.0000
     Starting wfcs are   20 randomized atomic wfcs
     Checking if some PAW data can be deallocated... 

     total cpu time spent up to now is        7.5 secs

     Self-consistent Calculation

     iteration #  1     ecut=    60.00 Ry     beta= 0.70
     Davidson diagonalization with overlap
     ethr =  1.00E-02,  avg # of iterations =  2.5

     Threshold (ethr) on eigenvalues was too large:
     Diagonalizing with lowered threshold

     Davidson diagonalization with overlap
     c_bands:  1 eigenvalues not converged
     c_bands:  3 eigenvalues not converged
     c_bands:  1 eigenvalues not converged
     c_bands:  1 eigenvalues not converged
     c_bands:  2 eigenvalues not converged
     c_bands:  4 eigenvalues not converged
     c_bands:  1 eigenvalues not converged
     c_bands:  1 eigenvalues not converged
     c_bands:  1 eigenvalues not converged
     c_bands:  2 eigenvalues not converged
     c_bands:  1 eigenvalues not converged
     c_bands:  1 eigenvalues not converged
     ethr =  3.02E-05,  avg # of iterations = 15.1

     total cpu time spent up to now is       53.1 secs

     total energy              =    -306.86343296 Ry
     estimated scf accuracy    <       0.02011237 Ry

     iteration #  2     ecut=    60.00 Ry     beta= 0.70
     Davidson diagonalization with overlap
     ethr =  9.14E-05,  avg # of iterations =  4.4

     total cpu time spent up to now is       65.6 secs

     total energy              =    -306.86848416 Ry
     estimated scf accuracy    <       0.00172644 Ry

     iteration #  3     ecut=    60.00 Ry     beta= 0.70
     Davidson diagonalization with overlap
     c_bands:  2 eigenvalues not converged
     ethr =  7.85E-06,  avg # of iterations =  8.2

     total cpu time spent up to now is       83.2 secs

     total energy              =    -306.86943100 Ry
     estimated scf accuracy    <       0.00020001 Ry

     iteration #  4     ecut=    60.00 Ry     beta= 0.70
     Davidson diagonalization with overlap
     c_bands:  2 eigenvalues not converged
     ethr =  9.09E-07,  avg # of iterations =  7.9

     total cpu time spent up to now is      100.1 secs

     total energy              =    -306.86957675 Ry
     estimated scf accuracy    <       0.00009537 Ry

     iteration #  5     ecut=    60.00 Ry     beta= 0.70
     Davidson diagonalization with overlap
     ethr =  4.33E-07,  avg # of iterations =  6.8

     total cpu time spent up to now is      115.0 secs

     total energy              =    -306.86963431 Ry
     estimated scf accuracy    <       0.00002604 Ry

     iteration #  6     ecut=    60.00 Ry     beta= 0.70
     Davidson diagonalization with overlap
     ethr =  1.18E-07,  avg # of iterations =  4.5

     total cpu time spent up to now is      126.0 secs

     total energy              =    -306.86962307 Ry
     estimated scf accuracy    <       0.00002033 Ry

     iteration #  7     ecut=    60.00 Ry     beta= 0.70
     Davidson diagonalization with overlap
     ethr =  9.24E-08,  avg # of iterations =  5.5

     total cpu time spent up to now is      139.0 secs

     total energy              =    -306.86963058 Ry
     estimated scf accuracy    <       0.00000046 Ry

     iteration #  8     ecut=    60.00 Ry     beta= 0.70
     Davidson diagonalization with overlap
     c_bands:  2 eigenvalues not converged
     c_bands:  1 eigenvalues not converged
     c_bands:  2 eigenvalues not converged
     ethr =  2.10E-09,  avg # of iterations = 14.7

     total cpu time spent up to now is      165.4 secs

     total energy              =    -306.86963247 Ry
     estimated scf accuracy    <       0.00000038 Ry

     iteration #  9     ecut=    60.00 Ry     beta= 0.70
     Davidson diagonalization with overlap
     c_bands:  1 eigenvalues not converged
     ethr =  1.71E-09,  avg # of iterations =  1.4

     total cpu time spent up to now is      174.3 secs

     total energy              =    -306.86963228 Ry
     estimated scf accuracy    <       0.00000033 Ry

     iteration # 10     ecut=    60.00 Ry     beta= 0.70
     Davidson diagonalization with overlap
     ethr =  1.51E-09,  avg # of iterations =  3.7

     total cpu time spent up to now is      185.2 secs

     total energy              =    -306.86963233 Ry
     estimated scf accuracy    <       0.00000001 Ry

     iteration # 11     ecut=    60.00 Ry     beta= 0.70
     Davidson diagonalization with overlap
     ethr =  5.60E-11,  avg # of iterations = 13.8

     total cpu time spent up to now is      210.6 secs

     total energy              =    -306.86963239 Ry
     estimated scf accuracy    <       0.00000004 Ry

     iteration # 12     ecut=    60.00 Ry     beta= 0.70
     Davidson diagonalization with overlap
     ethr =  5.60E-11,  avg # of iterations =  2.6

     total cpu time spent up to now is      220.9 secs

     total energy              =    -306.86963239 Ry
     estimated scf accuracy    <       0.00000002 Ry

     iteration # 13     ecut=    60.00 Ry     beta= 0.70
     Davidson diagonalization with overlap
     ethr =  5.60E-11,  avg # of iterations =  2.3

     total cpu time spent up to now is      230.4 secs

     End of self-consistent calculation

          k = 0.0000 0.0000 0.0000 (  2671 PWs)   bands (ev):

   -40.1408 -40.0765 -19.2245 -18.8913 -18.8913 -18.8330 -18.8330 -18.8160
     3.7529   7.1442   9.3012  10.3559  10.3559  10.4661  10.7592

          k = 0.0000 0.0000 0.0784 (  2677 PWs)   bands (ev):

   -40.1384 -40.0790 -19.2097 -18.8892 -18.8892 -18.8352 -18.8352 -18.8320
     3.8542   6.9898   9.2713  10.3132  10.3132  10.4008  10.7039

          k = 0.0000 0.0000 0.1568 (  2689 PWs)   bands (ev):

   -40.1315 -40.0860 -19.1665 -18.8829 -18.8829 -18.8777 -18.8416 -18.8416
     4.1512   6.5434   9.2807  10.2178  10.2507  10.2508  10.5688

          k = 0.0000 0.0000 0.2353 (  2640 PWs)   bands (ev):

   -40.1211 -40.0964 -19.1012 -18.9450 -18.8733 -18.8733 -18.8509 -18.8509
     4.6230   5.9074   9.4224   9.9561  10.2390  10.2392  10.4168

          k = 0.0000 0.0000-0.3137 (  2628 PWs)   bands (ev):

   -40.1088 -40.1088 -19.0236 -19.0236 -18.8620 -18.8620 -18.8620 -18.8620
     5.2305   5.2305   9.6689   9.6689  10.2973  10.2973  10.2973

          k = 0.0000 0.0962 0.0000 (  2663 PWs)   bands (ev):

   -40.1375 -40.0751 -19.2159 -18.9095 -18.8973 -18.8519 -18.8356 -18.8197
     3.9042   7.2740   9.1771  10.0872  10.4661  10.6347  10.7164

          k = 0.0000 0.0962 0.0784 (  2668 PWs)   bands (ev):

   -40.1352 -40.0775 -19.2017 -18.9068 -18.8950 -18.8601 -18.8379 -18.8293
     4.0040   7.1194   9.1498  10.0831  10.4111  10.5083  10.6355

          k = 0.0000 0.0962 0.1568 (  2661 PWs)   bands (ev):

   -40.1284 -40.0843 -19.1611 -18.8999 -18.8934 -18.8883 -18.8457 -18.8446
     4.2969   6.6708   9.1740  10.0890  10.2371  10.3378  10.6533

          k = 0.0000 0.0962 0.2353 (  2656 PWs)   bands (ev):

   -40.1183 -40.0945 -19.1001 -18.9546 -18.8877 -18.8783 -18.8598 -18.8547
     4.7625   6.0351   9.3358   9.9227  10.1357  10.3226  10.3808

          k = 0.0000 0.0962-0.3137 (  2658 PWs)   bands (ev):

   -40.1064 -40.1064 -19.0275 -19.0275 -18.8741 -18.8741 -18.8665 -18.8665
     5.3632   5.3632   9.6048   9.6049  10.2360  10.2367  10.3807

          k = 0.0000 0.1925 0.0000 (  2665 PWs)   bands (ev):

   -40.1283 -40.0716 -19.1907 -18.9596 -18.9133 -18.9031 -18.8431 -18.8309
     4.3435   7.6224   8.8920   9.6761  10.4100  10.7828  10.8157

          k = 0.0000 0.1925 0.0784 (  2652 PWs)   bands (ev):

   -40.1261 -40.0738 -19.1796 -18.9554 -18.9126 -18.9107 -18.8457 -18.8372
     4.4385   7.4681   8.8767   9.6955  10.4011  10.5459  10.6334

          k = 0.0000 0.1925 0.1568 (  2651 PWs)   bands (ev):

   -40.1200 -40.0799 -19.1479 -18.9489 -18.9358 -18.9031 -18.8536 -18.8534
     4.7175   7.0160   8.9392   9.7521  10.1759  10.4099  10.5423

          k = 0.0000 0.1925 0.2353 (  2651 PWs)   bands (ev):

   -40.1109 -40.0892 -19.1006 -18.9894 -18.9222 -18.8917 -18.8757 -18.8649
     5.1620   6.3885   9.1414   9.7403   9.9596  10.2618  10.5359

          k = 0.0000 0.1925-0.3137 (  2650 PWs)   bands (ev):

   -40.1000 -40.1000 -19.0446 -19.0446 -18.8996 -18.8996 -18.8783 -18.8783
     5.7381   5.7381   9.4376   9.4376  10.0811  10.0812  10.6073

          k = 0.0000 0.2887 0.0000 (  2661 PWs)   bands (ev):

   -40.1151 -40.0673 -19.1529 -19.0287 -18.9709 -18.9345 -18.8540 -18.8496
     5.0253   8.0297   8.5854   9.2513  10.1904  10.4709  10.5713

          k = 0.0000 0.2887 0.0784 (  2648 PWs)   bands (ev):

   -40.1133 -40.0691 -19.1493 -19.0200 -18.9799 -18.9314 -18.8571 -18.8529
     5.1106   7.8806   8.5974   9.2821  10.1629  10.4113  10.5846

          k = 0.0000 0.2887 0.1568 (  2643 PWs)   bands (ev):

   -40.1081 -40.0743 -19.1375 -19.0158 -18.9849 -18.9228 -18.8658 -18.8646
     5.3611   7.4456   8.7156   9.3586  10.0172  10.3004  10.6341

          k = 0.0000 0.2887 0.2353 (  2639 PWs)   bands (ev):

   -40.1004 -40.0821 -19.1156 -19.0482 -18.9533 -18.9097 -18.8865 -18.8789
     5.7604   6.8670   8.9425   9.3962   9.8585  10.1308  10.7350

          k = 0.0000 0.2887-0.3137 (  2636 PWs)   bands (ev):

   -40.0912 -40.0912 -19.0844 -19.0844 -18.9175 -18.9175 -18.8944 -18.8944
     6.2786   6.2786   9.2146   9.2146   9.9337   9.9338  10.8877

          k = 0.0000 0.3849 0.0000 (  2648 PWs)   bands (ev):

   -40.1009 -40.0640 -19.1085 -19.0984 -19.0364 -18.9550 -18.8748 -18.8655
     5.8653   8.1903   8.3372   8.9154  10.2161  10.2238  10.3593

          k = 0.0000 0.3849 0.0784 (  2643 PWs)   bands (ev):

   -40.0995 -40.0654 -19.1348 -19.0676 -19.0408 -18.9516 -18.8748 -18.8689
     5.9324   8.0475   8.4073   8.9572  10.0712  10.3024  10.4087

          k = 0.0000 0.3849 0.1568 (  2641 PWs)   bands (ev):

   -40.0955 -40.0694 -19.1515 -19.0802 -19.0073 -18.9419 -18.8790 -18.8787
     6.1289   7.7138   8.5684   9.0454   9.9255  10.2520  10.5538

          k = 0.0000 0.3849 0.2353 (  2643 PWs)   bands (ev):

   -40.0895 -40.0754 -19.1519 -19.1106 -18.9615 -18.9275 -18.8939 -18.8932
     6.4399   7.2839   8.7910   9.0993   9.8382  10.0831  10.7839

          k = 0.0000 0.3849-0.3137 (  2644 PWs)   bands (ev):

   -40.0824 -40.0824 -19.1370 -19.1370 -18.9220 -18.9220 -18.9104 -18.9104
     6.8389   6.8389   9.0065   9.0065   9.8997   9.8997  11.0786

          k = 0.0000 0.4811 0.0000 (  2658 PWs)   bands (ev):

   -40.0891 -40.0629 -19.1498 -19.0834 -19.0672 -18.9697 -18.9020 -18.8742
     6.7175   8.0246   8.1810   8.6646  10.0532  10.2180  10.4294

          k = 0.0000 0.4811 0.0784 (  2650 PWs)   bands (ev):

   -40.0881 -40.0639 -19.1639 -19.0973 -19.0424 -18.9661 -18.8985 -18.8778
     6.7494   7.9281   8.2802   8.6955  10.0579  10.2800  10.3832

          k = 0.0000 0.4811 0.1568 (  2647 PWs)   bands (ev):

   -40.0853 -40.0667 -19.1826 -19.1257 -18.9983 -18.9558 -18.8948 -18.8882
     6.8464   7.7318   8.4732   8.7929  10.0443  10.2600  10.4627

          k = 0.0000 0.4811 0.2353 (  2649 PWs)   bands (ev):

   -40.0810 -40.0710 -19.1888 -19.1563 -18.9550 -18.9404 -18.9038 -18.9007
     7.0090   7.4832   8.7038   8.9034   9.9875  10.1092  10.7557

          k = 0.0000 0.4811-0.3137 (  2644 PWs)   bands (ev):

   -40.0760 -40.0760 -19.1794 -19.1794 -18.9221 -18.9221 -18.9209 -18.9209
     7.2289   7.2289   8.8865   8.8865   9.9907   9.9908  11.1399

          k = 0.0000-0.5774 0.0000 (  2642 PWs)   bands (ev):

   -40.0841 -40.0631 -19.1685 -19.1003 -19.0478 -18.9750 -18.9161 -18.8774
     7.2333   7.7879   8.1284   8.5496   9.9926  10.1687  10.5286

          k = 0.0000-0.5774 0.0784 (  2656 PWs)   bands (ev):

   -40.0834 -40.0640 -19.1798 -19.1130 -19.0290 -18.9713 -18.9109 -18.8811
     7.2133   7.7646   8.2383   8.5474  10.0466  10.2340  10.4576

          k = 0.0000-0.5774 0.1568 (  2642 PWs)   bands (ev):

   -40.0811 -40.0662 -19.1968 -19.1422 -18.9896 -18.9608 -18.9030 -18.8917
     7.1990   7.6714   8.5005   8.5997  10.1414  10.2778  10.4275

          k = 0.0000-0.5774 0.2353 (  2648 PWs)   bands (ev):

   -40.0777 -40.0696 -19.2037 -19.1731 -18.9500 -18.9451 -18.9077 -18.9042
     7.2430   7.5150   8.7381   8.7687  10.0946  10.1477  10.7383

          k = 0.0000-0.5774-0.3137 (  2652 PWs)   bands (ev):

   -40.0736 -40.0736 -19.1953 -19.1953 -18.9265 -18.9265 -18.9200 -18.9200
     7.3556   7.3556   8.8551   8.8551  10.0639  10.0640  11.1481

          k = 0.0833 0.1443 0.0000 (  2659 PWs)   bands (ev):

   -40.1312 -40.0727 -19.1988 -18.9401 -18.9164 -18.8800 -18.8431 -18.8272
     4.1998   7.5154   8.9772   9.7879  10.4909  10.6956  10.7648

          k = 0.0833 0.1443 0.0784 (  2657 PWs)   bands (ev):

   -40.1290 -40.0749 -19.1866 -18.9365 -18.9158 -18.8880 -18.8456 -18.8338
     4.2965   7.3607   8.9573   9.8028  10.4988  10.5141  10.5880

          k = 0.0833 0.1443 0.1568 (  2652 PWs)   bands (ev):

   -40.1227 -40.0813 -19.1518 -18.9297 -18.9260 -18.8980 -18.8529 -18.8497
     4.5803   6.9087   9.0073   9.8512  10.2023  10.4385  10.4960

          k = 0.0833 0.1443 0.2353 (  2652 PWs)   bands (ev):

   -40.1132 -40.0908 -19.0996 -18.9769 -18.9104 -18.8912 -18.8682 -18.8636
     5.0324   6.2767   9.1990   9.8163   9.9929  10.2914  10.4818

          k = 0.0833 0.1443-0.3137 (  2640 PWs)   bands (ev):

   -40.1020 -40.1020 -19.0378 -19.0378 -18.8926 -18.8926 -18.8748 -18.8748
     5.6177   5.6177   9.4921   9.4922  10.1219  10.1224  10.5380

          k = 0.0833 0.2406 0.0000 (  2659 PWs)   bands (ev):

   -40.1200 -40.0688 -19.1673 -18.9951 -18.9614 -18.9140 -18.8560 -18.8422
     4.7624   7.9127   8.6996   9.3769  10.2611  10.4663  10.7560

          k = 0.0833 0.2406 0.0784 (  2655 PWs)   bands (ev):

   -40.1181 -40.0707 -19.1600 -18.9891 -18.9654 -18.9172 -18.8591 -18.8456
     4.8520   7.7600   8.6964   9.4045  10.2703  10.3873  10.6808

          k = 0.0833 0.2406 0.1568 (  2645 PWs)   bands (ev):

   -40.1126 -40.0763 -19.1389 -18.9899 -18.9661 -18.9180 -18.8678 -18.8566
     5.1154   7.3096   8.7926   9.4800  10.0912  10.3064  10.6315

          k = 0.0833 0.2406 0.2353 (  2641 PWs)   bands (ev):

   -40.1043 -40.0846 -19.1062 -19.0241 -18.9413 -18.9113 -18.8811 -18.8743
     5.5355   6.7015   9.0155   9.5240   9.8766  10.1465  10.6838

          k = 0.0833 0.2406-0.3137 (  2644 PWs)   bands (ev):

   -40.0945 -40.0945 -19.0661 -19.0661 -18.9152 -18.9152 -18.8882 -18.8882
     6.0812   6.0812   9.3062   9.3062   9.9518   9.9519  10.7889

          k = 0.0833 0.3368 0.0000 (  2653 PWs)   bands (ev):

   -40.1063 -40.0650 -19.1259 -19.0632 -19.0160 -18.9455 -18.8698 -18.8645
     5.5306   8.2319   8.4452   9.0007  10.1571  10.2103  10.5152

          k = 0.0833 0.3368 0.0784 (  2647 PWs)   bands (ev):

   -40.1047 -40.0666 -19.1327 -19.0494 -19.0195 -18.9454 -18.8747 -18.8633
     5.6071   8.0821   8.4885   9.0384  10.0669  10.2768  10.4980

          k = 0.0833 0.3368 0.1568 (  2640 PWs)   bands (ev):

   -40.1003 -40.0710 -19.1381 -19.0549 -18.9991 -18.9406 -18.8852 -18.8672
     5.8316   7.6843   8.6369   9.1285   9.9242  10.2260  10.5681

          k = 0.0833 0.3368 0.2353 (  2647 PWs)   bands (ev):

   -40.0936 -40.0778 -19.1313 -19.0836 -18.9610 -18.9299 -18.8991 -18.8807
     6.1887   7.1716   8.8625   9.2007   9.7902  10.0334  10.7578

          k = 0.0833 0.3368-0.3137 (  2644 PWs)   bands (ev):

   -40.0857 -40.0857 -19.1118 -19.1118 -18.9313 -18.9313 -18.8999 -18.8999
     6.6502   6.6502   9.0985   9.0985   9.8350   9.8350  10.9949

          k = 0.0833 0.4330 0.0000 (  2651 PWs)   bands (ev):

   -40.0931 -40.0630 -19.1235 -19.0818 -19.0638 -18.9700 -18.8918 -18.8818
     6.3949   8.2046   8.2629   8.7351  10.0425  10.2831  10.3267

          k = 0.0833 0.4330 0.0784 (  2648 PWs)   bands (ev):

   -40.0919 -40.0641 -19.1426 -19.0819 -19.0463 -18.9674 -18.8932 -18.8811
     6.4473   8.0715   8.3575   8.7863   9.9909  10.2667  10.3702

          k = 0.0833 0.4330 0.1568 (  2650 PWs)   bands (ev):

   -40.0887 -40.0674 -19.1625 -19.1060 -19.0046 -18.9571 -18.9022 -18.8799
     6.6005   7.8173   8.5265   8.8993   9.8872  10.1595  10.5229

          k = 0.0833 0.4330 0.2353 (  2645 PWs)   bands (ev):

   -40.0838 -40.0723 -19.1679 -19.1349 -18.9683 -18.9389 -18.9151 -18.8866
     6.8426   7.4928   8.7499   8.9933   9.8001   9.9733  10.7740

          k = 0.0833 0.4330-0.3137 (  2660 PWs)   bands (ev):

   -40.0781 -40.0781 -19.1579 -19.1579 -18.9436 -18.9436 -18.9046 -18.9046
     7.1516   7.1516   8.9480   8.9480   9.8174   9.8174  11.0994

          k = 0.0833 0.5292 0.0000 (  2652 PWs)   bands (ev):

   -40.0842 -40.0631 -19.1584 -19.0915 -19.0482 -18.9834 -18.9158 -18.8887
     7.1547   7.9516   8.1697   8.5484   9.9765  10.1273  10.5238

          k = 0.0833 0.5292 0.0784 (  2642 PWs)   bands (ev):

   -40.0834 -40.0639 -19.1695 -19.1046 -19.0308 -18.9778 -18.9128 -18.8899
     7.1599   7.9000   8.2715   8.5709   9.9916  10.1346  10.5109

          k = 0.0833 0.5292 0.1568 (  2651 PWs)   bands (ev):

   -40.0811 -40.0662 -19.1867 -19.1337 -19.0000 -18.9597 -18.9157 -18.8893
     7.1923   7.7743   8.4899   8.6766   9.9916  10.0726  10.5830

          k = 0.0833 0.5292 0.2353 (  2647 PWs)   bands (ev):

   -40.0777 -40.0696 -19.1937 -19.1640 -18.9737 -18.9351 -18.9265 -18.8913
     7.2769   7.5980   8.7284   8.8508   9.8861   9.9561  10.8260

          k = 0.0833 0.5292-0.3137 (  2644 PWs)   bands (ev):

   -40.0736 -40.0736 -19.1858 -19.1858 -18.9512 -18.9512 -18.9050 -18.9050
     7.4186   7.4186   8.8962   8.8962   9.8485   9.8485  11.1766

          k = 0.1667 0.2887 0.0000 (  2660 PWs)   bands (ev):

   -40.1082 -40.0654 -19.1319 -19.0332 -19.0256 -18.9342 -18.8796 -18.8610
     5.4167   8.2680   8.4998   9.0050  10.1475  10.1660  10.6037

          k = 0.1667 0.2887 0.0784 (  2652 PWs)   bands (ev):

   -40.1066 -40.0671 -19.1337 -19.0296 -19.0198 -18.9394 -18.8826 -18.8603
     5.4965   8.1133   8.5308   9.0387  10.1158  10.1968  10.5492

          k = 0.1667 0.2887 0.1568 (  2642 PWs)   bands (ev):

   -40.1020 -40.0717 -19.1326 -19.0451 -18.9887 -18.9450 -18.8907 -18.8637
     5.7307   7.6855   8.6733   9.1318   9.9661  10.1875  10.5414

          k = 0.1667 0.2887 0.2353 (  2646 PWs)   bands (ev):

   -40.0950 -40.0787 -19.1215 -19.0714 -18.9544 -18.9420 -18.9000 -18.8769
     6.1038   7.1386   8.9009   9.2295   9.7833   9.9927  10.7151

          k = 0.1667 0.2887-0.3137 (  2650 PWs)   bands (ev):

   -40.0868 -40.0868 -19.0997 -19.0997 -18.9373 -18.9373 -18.8962 -18.8962
     6.5880   6.5880   9.1445   9.1445   9.7918   9.7918  10.9385

          k = 0.1667 0.3849 0.0000 (  2647 PWs)   bands (ev):

   -40.0953 -40.0631 -19.0896 -19.0889 -19.0600 -18.9667 -18.9020 -18.8865
     6.2287   8.3494   8.4245   8.7052   9.9539  10.2339  10.3624

          k = 0.1667 0.3849 0.0784 (  2652 PWs)   bands (ev):

   -40.0941 -40.0644 -19.1193 -19.0799 -19.0361 -18.9714 -18.9062 -18.8809
     6.2920   8.2298   8.4844   8.7504   9.9175  10.2578  10.3120

          k = 0.1667 0.3849 0.1568 (  2651 PWs)   bands (ev):

   -40.0906 -40.0679 -19.1398 -19.0939 -18.9977 -18.9723 -18.9147 -18.8752
     6.4773   7.9406   8.6295   8.8594   9.8215  10.0790  10.4377

          k = 0.1667 0.3849 0.2353 (  2648 PWs)   bands (ev):

   -40.0854 -40.0731 -19.1453 -19.1162 -18.9770 -18.9582 -18.9166 -18.8801
     6.7695   7.5531   8.8315   8.9852   9.6930   9.8360  10.6707

          k = 0.1667 0.3849-0.3137 (  2652 PWs)   bands (ev):

   -40.0792 -40.0792 -19.1361 -19.1361 -18.9631 -18.9631 -18.8974 -18.8974
     7.1422   7.1422   9.0001   9.0001   9.6624   9.6624  10.9796

          k = 0.1667 0.4811 0.0000 (  2638 PWs)   bands (ev):

   -40.0843 -40.0630 -19.1319 -19.0762 -19.0488 -18.9980 -18.9170 -18.9150
     7.0559   8.2511   8.2626   8.5373   9.8705  10.1123  10.4915

          k = 0.1667 0.4811 0.0784 (  2651 PWs)   bands (ev):

   -40.0835 -40.0639 -19.1424 -19.0928 -19.0310 -18.9927 -18.9261 -18.9021
     7.0913   8.1504   8.3535   8.6088   9.8422  10.0490  10.5099

          k = 0.1667 0.4811 0.1568 (  2651 PWs)   bands (ev):

   -40.0812 -40.0661 -19.1601 -19.1183 -19.0170 -18.9679 -18.9347 -18.8884
     7.1953   7.9928   8.5152   8.7693   9.7527   9.8747  10.5977

          k = 0.1667 0.4811 0.2353 (  2650 PWs)   bands (ev):

   -40.0777 -40.0696 -19.1689 -19.1447 -19.0022 -18.9656 -18.9195 -18.8849
     7.3596   7.7900   8.7436   8.9377   9.6233   9.6432  10.7852

          k = 0.1667 0.4811-0.3137 (  2656 PWs)   bands (ev):

   -40.0736 -40.0736 -19.1634 -19.1634 -18.9835 -18.9835 -18.8959 -18.8959
     7.5672   7.5672   8.9518   8.9518   9.5288   9.5288  11.0695

          k = 0.1667 0.5774 0.0000 (  2648 PWs)   bands (ev):

   -40.0793 -40.0639 -19.1475 -19.0804 -19.0281 -19.0115 -18.9314 -18.9225
     7.5600   8.0332   8.2349   8.4423   9.9136   9.9462  10.6195

          k = 0.1667 0.5774 0.0784 (  2643 PWs)   bands (ev):

   -40.0787 -40.0645 -19.1557 -19.0943 -19.0334 -18.9880 -18.9380 -18.9115
     7.5524   8.0200   8.3263   8.4749   9.8772   9.9107  10.6327

          k = 0.1667 0.5774 0.1568 (  2656 PWs)   bands (ev):

   -40.0771 -40.0662 -19.1709 -19.1242 -19.0276 -18.9513 -18.9510 -18.8954
     7.5596   7.9583   8.5563   8.5959   9.7697   9.7781  10.7102

          k = 0.1667 0.5774 0.2353 (  2649 PWs)   bands (ev):

   -40.0745 -40.0686 -19.1790 -19.1538 -19.0118 -18.9698 -18.9172 -18.8878
     7.6145   7.8449   8.8029   8.8387   9.5595   9.5973  10.8889

          k = 0.1667 0.5774-0.3137 (  2648 PWs)   bands (ev):

   -40.0716 -40.0716 -19.1734 -19.1734 -18.9912 -18.9912 -18.8949 -18.8949
     7.7175   7.7175   8.9818   8.9818   9.4363   9.4363  11.1583

          k = 0.2500 0.4330 0.0000 (  2640 PWs)   bands (ev):

   -40.0843 -40.0630 -19.1092 -19.0794 -19.0492 -18.9974 -18.9379 -18.9147
     7.0198   8.3155   8.4463   8.4869   9.7946  10.1222  10.4584

          k = 0.2500 0.4330 0.0784 (  2643 PWs)   bands (ev):

   -40.0835 -40.0638 -19.1112 -19.1075 -19.0169 -19.0076 -18.9403 -18.9041
     7.0667   8.2531   8.4834   8.5628   9.7783  10.0178  10.4687

          k = 0.2500 0.4330 0.1568 (  2646 PWs)   bands (ev):

   -40.0812 -40.0661 -19.1359 -19.1204 -19.0187 -18.9838 -18.9397 -18.8884
     7.2023   8.1148   8.5931   8.7210   9.7115   9.7746  10.5256

          k = 0.2500 0.4330 0.2353 (  2655 PWs)   bands (ev):

   -40.0777 -40.0696 -19.1503 -19.1366 -19.0149 -18.9850 -18.9167 -18.8832
     7.4097   7.9097   8.7631   8.8974   9.5170   9.5749  10.6849

          k = 0.2500 0.4330-0.3137 (  2660 PWs)   bands (ev):

   -40.0737 -40.0737 -19.1494 -19.1494 -19.0007 -19.0007 -18.8931 -18.8931
     7.6595   7.6595   8.9309   8.9309   9.4349   9.4349  10.9700

          k = 0.2500 0.5292 0.0000 (  2639 PWs)   bands (ev):

   -40.0759 -40.0650 -19.1243 -19.0682 -19.0321 -19.0129 -18.9606 -18.9439
     7.7125   8.2631   8.3174   8.3811   9.7686   9.8966  10.6823

          k = 0.2500 0.5292 0.0784 (  2642 PWs)   bands (ev):

   -40.0755 -40.0654 -19.1274 -19.0871 -19.0475 -18.9876 -18.9649 -18.9273
     7.7409   8.2364   8.3493   8.4700   9.7281   9.8014  10.6865

          k = 0.2500 0.5292 0.1568 (  2642 PWs)   bands (ev):

   -40.0743 -40.0666 -19.1397 -19.1142 -19.0572 -18.9867 -18.9400 -18.9030
     7.8194   8.1931   8.4728   8.6531   9.5514   9.6141  10.7219

          k = 0.2500 0.5292 0.2353 (  2657 PWs)   bands (ev):

   -40.0725 -40.0683 -19.1521 -19.1383 -19.0473 -19.0055 -18.9086 -18.8887
     7.9290   8.1332   8.6767   8.8904   9.2512   9.4104  10.8360

          k = 0.2500 0.5292-0.3137 (  2654 PWs)   bands (ev):

   -40.0704 -40.0704 -19.1523 -19.1523 -19.0275 -19.0275 -18.8902 -18.8902
     8.0424   8.0424   8.9417   8.9417   9.1601   9.1601  11.0656

          k = 0.3333 0.5774 0.0000 (  2616 PWs)   bands (ev):

   -40.0692 -40.0692 -19.1147 -19.0533 -19.0533 -18.9862 -18.9771 -18.9771
     8.1624   8.1624   8.2658   8.3542   9.7654   9.7654  10.7770

          k = 0.3333 0.5774 0.0784 (  2640 PWs)   bands (ev):

   -40.0693 -40.0693 -19.1100 -19.0749 -19.0749 -18.9913 -18.9553 -18.9553
     8.2080   8.2080   8.2845   8.3726   9.6877   9.6877  10.7755

          k = 0.3333 0.5774 0.1568 (  2667 PWs)   bands (ev):

   -40.0693 -40.0693 -19.1081 -19.1081 -19.0964 -19.0054 -18.9217 -18.9217
     8.3347   8.3384   8.3384   8.4148   9.4865   9.4865  10.7925

          k = 0.3333 0.5774 0.2353 (  2661 PWs)   bands (ev):

   -40.0692 -40.0692 -19.1321 -19.1321 -19.0756 -19.0264 -18.8971 -18.8971
     8.3972   8.4485   8.5267   8.5267   9.2360   9.2360  10.8793

          k = 0.3333 0.5774-0.3137 (  2652 PWs)   bands (ev):

   -40.0692 -40.0692 -19.1407 -19.1407 -19.0510 -19.0510 -18.8883 -18.8883
     8.4433   8.4433   8.6579   8.6579   9.0809   9.0809  11.0838

     the Fermi energy is     8.8193 ev

!    total energy              =    -306.86963238 Ry
     total all-electron energy =     -3050.010403 Ry
     estimated scf accuracy    <          8.7E-09 Ry
     smearing contrib. (-TS)   =      -0.00103852 Ry
     internal energy E=F+TS    =    -306.86859386 Ry

     The total energy is F=E-TS. E is the sum of the following terms:
     one-electron contribution =     -74.39665952 Ry
     hartree contribution      =      42.28106356 Ry
     xc contribution           =     -34.52856330 Ry
     ewald contribution        =    -126.46581264 Ry
     one-center paw contrib.   =    -113.75862195 Ry

     convergence has been achieved in  13 iterations

     Forces acting on atoms (cartesian axes, Ry/au):

     atom    1 type  1   force =    -0.00000000   -0.00000000    0.00000000
     atom    2 type  1   force =     0.00000000   -0.00000000    0.00000000
     The non-local contrib.  to forces
     atom    1 type  1   force =     0.00000000    0.00000000    0.00000000
     atom    2 type  1   force =     0.00000000   -0.00000000    0.00000000
     The ionic contribution  to forces
     atom    1 type  1   force =     0.00000000   -0.00000000    0.00000000
     atom    2 type  1   force =    -0.00000000    0.00000000    0.00000000
     The local contribution  to forces
     atom    1 type  1   force =     0.00000000    0.00000000    0.00000000
     atom    2 type  1   force =    -0.00000000    0.00000000    0.00000000
     The core correction contribution to forces
     atom    1 type  1   force =     0.00000000   -0.00000000   -0.00000000
     atom    2 type  1   force =     0.00000000   -0.00000000    0.00000000
     The Hubbard contrib.    to forces
     atom    1 type  1   force =     0.00000000    0.00000000    0.00000000
     atom    2 type  1   force =     0.00000000    0.00000000    0.00000000
     The SCF correction term to forces
     atom    1 type  1   force =    -0.00000000    0.00000000   -0.00000000
     atom    2 type  1   force =     0.00000000   -0.00000000   -0.00000000

     Total force =     0.000000     Total SCF correction =     0.000000


     Computing stress (Cartesian axis) and pressure

          total   stress  (Ry/bohr**3)                   (kbar)     P=      -60.92
  -0.00037394  -0.00000000   0.00000000          -55.01       -0.00        0.00
  -0.00000000  -0.00037394   0.00000000           -0.00      -55.01        0.00
  -0.00000000  -0.00000000  -0.00049457           -0.00       -0.00      -72.75


     BFGS Geometry Optimization
     Energy error            =      0.0E+00 Ry
     Gradient error          =      1.6E-27 Ry/Bohr
     Cell gradient error     =      7.3E+01 kbar

     number of scf cycles    =   1
     number of bfgs steps    =   0

     enthalpy           new  =    -306.8696323816 Ry

     new trust radius        =       0.0454306054 bohr
     new conv_thr            =       0.0000000100 Ry

     new unit-cell volume =    327.14811 a.u.^3 (    48.47835 Ang^3 )
     density =      3.05511 g/cm^3

CELL_PARAMETERS (alat=  6.25310370)
   0.990651441  -0.000000000  -0.000000000
  -0.495325720   0.857929314  -0.000000000
   0.000000000   0.000000000   1.574291484

ATOMIC_POSITIONS (crystal)
Sc           -0.0000000000       -0.0000000000        0.0000000000
Sc            0.6666666667        0.3333333333        0.5000000000



     Writing config-only to output data dir sc_vcrelax.out/scandium.save/
     NEW-OLD atomic charge density approx. for the potential

     Check: negative core charge=   -0.000035
     extrapolated charge   21.30232, renormalised to   22.00000

     total cpu time spent up to now is      243.8 secs

     Self-consistent Calculation

     iteration #  1     ecut=    60.00 Ry     beta= 0.70
     Davidson diagonalization with overlap
     c_bands:  1 eigenvalues not converged
     c_bands:  1 eigenvalues not converged
     c_bands:  1 eigenvalues not converged
     c_bands:  1 eigenvalues not converged
     c_bands:  3 eigenvalues not converged
     c_bands:  1 eigenvalues not converged
     c_bands:  2 eigenvalues not converged
     c_bands:  2 eigenvalues not converged
     c_bands:  1 eigenvalues not converged
     c_bands:  1 eigenvalues not converged
     c_bands:  1 eigenvalues not converged
     c_bands:  5 eigenvalues not converged
     c_bands:  2 eigenvalues not converged
     c_bands:  3 eigenvalues not converged
     c_bands:  5 eigenvalues not converged
     c_bands:  2 eigenvalues not converged
     c_bands:  4 eigenvalues not converged
     c_bands:  3 eigenvalues not converged
     c_bands:  1 eigenvalues not converged
     c_bands:  3 eigenvalues not converged
     c_bands:  2 eigenvalues not converged
     c_bands:  2 eigenvalues not converged
     c_bands:  4 eigenvalues not converged
     c_bands:  1 eigenvalues not converged
     c_bands:  1 eigenvalues not converged
     c_bands:  2 eigenvalues not converged
     c_bands:  1 eigenvalues not converged
     c_bands:  2 eigenvalues not converged
     c_bands:  1 eigenvalues not converged
     c_bands:  2 eigenvalues not converged
     c_bands:  1 eigenvalues not converged
     c_bands:  4 eigenvalues not converged
     c_bands:  2 eigenvalues not converged
     c_bands:  5 eigenvalues not converged
     c_bands:  3 eigenvalues not converged
     c_bands:  1 eigenvalues not converged
     c_bands:  5 eigenvalues not converged
     c_bands:  4 eigenvalues not converged
     c_bands:  1 eigenvalues not converged
     c_bands:  2 eigenvalues not converged
     c_bands:  2 eigenvalues not converged
     c_bands:  1 eigenvalues not converged
     c_bands:  4 eigenvalues not converged
     c_bands:  2 eigenvalues not converged
     c_bands:  3 eigenvalues not converged
     c_bands:  3 eigenvalues not converged
     c_bands:  2 eigenvalues not converged
     c_bands:  4 eigenvalues not converged
     c_bands:  2 eigenvalues not converged
     c_bands:  1 eigenvalues not converged
     c_bands:  5 eigenvalues not converged
     c_bands:  3 eigenvalues not converged
     c_bands:  2 eigenvalues not converged
     c_bands:  4 eigenvalues not converged
     c_bands:  2 eigenvalues not converged
     c_bands:  5 eigenvalues not converged
     c_bands:  2 eigenvalues not converged
     c_bands:  1 eigenvalues not converged
     c_bands:  5 eigenvalues not converged
     c_bands:  5 eigenvalues not converged
     c_bands:  2 eigenvalues not converged
     ethr =  1.00E-06,  avg # of iterations = 19.7

     total cpu time spent up to now is      287.5 secs

     total energy              =    -306.73411552 Ry
     estimated scf accuracy    <       0.10085271 Ry

     iteration #  2     ecut=    60.00 Ry     beta= 0.70
     Davidson diagonalization with overlap
     ethr =  4.58E-04,  avg # of iterations =  7.5

     total cpu time spent up to now is      306.9 secs

     total energy              =    -306.87709253 Ry
     estimated scf accuracy    <       0.17418577 Ry

     iteration #  3     ecut=    60.00 Ry     beta= 0.70
     Davidson diagonalization with overlap
     ethr =  4.58E-04,  avg # of iterations =  1.3

     total cpu time spent up to now is      315.8 secs

     total energy              =    -306.87264481 Ry
     estimated scf accuracy    <       0.05151260 Ry

     iteration #  4     ecut=    60.00 Ry     beta= 0.70
     Davidson diagonalization with overlap
     ethr =  2.34E-04,  avg # of iterations =  2.3

     total cpu time spent up to now is      326.0 secs

     total energy              =    -306.87180444 Ry
     estimated scf accuracy    <       0.02289227 Ry

     iteration #  5     ecut=    60.00 Ry     beta= 0.70
     Davidson diagonalization with overlap
     ethr =  1.04E-04,  avg # of iterations =  2.2

     total cpu time spent up to now is      335.7 secs

     total energy              =    -306.87432292 Ry
     estimated scf accuracy    <       0.01141549 Ry

     iteration #  6     ecut=    60.00 Ry     beta= 0.70
     Davidson diagonalization with overlap
     ethr =  5.19E-05,  avg # of iterations =  2.7

     total cpu time spent up to now is      345.4 secs

     total energy              =    -306.87853063 Ry
     estimated scf accuracy    <       0.01138563 Ry

     iteration #  7     ecut=    60.00 Ry     beta= 0.70
     Davidson diagonalization with overlap
     ethr =  5.18E-05,  avg # of iterations =  1.2

     total cpu time spent up to now is      354.3 secs

     total energy              =    -306.86737301 Ry
     estimated scf accuracy    <       0.01642905 Ry

     iteration #  8     ecut=    60.00 Ry     beta= 0.70
     Davidson diagonalization with overlap
     ethr =  5.18E-05,  avg # of iterations =  5.5

     total cpu time spent up to now is      368.0 secs

     total energy              =    -306.87407619 Ry
     estimated scf accuracy    <       0.00026989 Ry

     iteration #  9     ecut=    60.00 Ry     beta= 0.70
     Davidson diagonalization with overlap
     ethr =  1.23E-06,  avg # of iterations = 13.8

     total cpu time spent up to now is      399.6 secs

     total energy              =    -306.87471545 Ry
     estimated scf accuracy    <       0.00618307 Ry

     iteration # 10     ecut=    60.00 Ry     beta= 0.70
     Davidson diagonalization with overlap
     ethr =  1.23E-06,  avg # of iterations =  4.0

     total cpu time spent up to now is      411.9 secs

     total energy              =    -306.87398759 Ry
     estimated scf accuracy    <       0.00366763 Ry

     iteration # 11     ecut=    60.00 Ry     beta= 0.70
     Davidson diagonalization with overlap
     ethr =  1.23E-06,  avg # of iterations =  5.2

     total cpu time spent up to now is      425.3 secs

     total energy              =    -306.87414581 Ry
     estimated scf accuracy    <       0.00171643 Ry

     iteration # 12     ecut=    60.00 Ry     beta= 0.70
     Davidson diagonalization with overlap
     ethr =  1.23E-06,  avg # of iterations =  1.9

     total cpu time spent up to now is      434.9 secs

     total energy              =    -306.87278173 Ry
     estimated scf accuracy    <       0.00175353 Ry

     iteration # 13     ecut=    60.00 Ry     beta= 0.70
     Davidson diagonalization with overlap
     ethr =  1.23E-06,  avg # of iterations =  9.0

     total cpu time spent up to now is      456.6 secs

     total energy              =    -306.87364363 Ry
     estimated scf accuracy    <       0.00040452 Ry

     iteration # 14     ecut=    60.00 Ry     beta= 0.70
     Davidson diagonalization with overlap
     ethr =  1.23E-06,  avg # of iterations =  1.2

     total cpu time spent up to now is      465.6 secs

     total energy              =    -306.87370468 Ry
     estimated scf accuracy    <       0.00028964 Ry

     iteration # 15     ecut=    60.00 Ry     beta= 0.70
     Davidson diagonalization with overlap
     ethr =  1.23E-06,  avg # of iterations =  1.1

     total cpu time spent up to now is      474.4 secs

     total energy              =    -306.87354993 Ry
     estimated scf accuracy    <       0.00039190 Ry

     iteration # 16     ecut=    60.00 Ry     beta= 0.70
     Davidson diagonalization with overlap
     ethr =  1.23E-06,  avg # of iterations =  1.1

     total cpu time spent up to now is      483.2 secs

     total energy              =    -306.87352799 Ry
     estimated scf accuracy    <       0.00013712 Ry

     iteration # 17     ecut=    60.00 Ry     beta= 0.70
     Davidson diagonalization with overlap
     ethr =  6.23E-07,  avg # of iterations =  2.5

     total cpu time spent up to now is      493.0 secs

     total energy              =    -306.87349807 Ry
     estimated scf accuracy    <       0.00005102 Ry

     iteration # 18     ecut=    60.00 Ry     beta= 0.70
     Davidson diagonalization with overlap
     ethr =  2.32E-07,  avg # of iterations =  6.8

     total cpu time spent up to now is      508.9 secs

     total energy              =    -306.87353133 Ry
     estimated scf accuracy    <       0.00006004 Ry

     iteration # 19     ecut=    60.00 Ry     beta= 0.70
     Davidson diagonalization with overlap
     ethr =  2.32E-07,  avg # of iterations =  1.5

     total cpu time spent up to now is      518.0 secs

     total energy              =    -306.87352950 Ry
     estimated scf accuracy    <       0.00001435 Ry

     iteration # 20     ecut=    60.00 Ry     beta= 0.70
     Davidson diagonalization with overlap
     ethr =  6.52E-08,  avg # of iterations =  4.8

     total cpu time spent up to now is      529.4 secs

     total energy              =    -306.87353519 Ry
     estimated scf accuracy    <       0.00000056 Ry

     iteration # 21     ecut=    60.00 Ry     beta= 0.70
     Davidson diagonalization with overlap
     ethr =  2.52E-09,  avg # of iterations =  9.8

     total cpu time spent up to now is      548.2 secs

     total energy              =    -306.87353618 Ry
     estimated scf accuracy    <       0.00000006 Ry

     iteration # 22     ecut=    60.00 Ry     beta= 0.70
     Davidson diagonalization with overlap
     ethr =  2.68E-10,  avg # of iterations =  7.7

     total cpu time spent up to now is      563.5 secs

     total energy              =    -306.87353627 Ry
     estimated scf accuracy    <       0.00000003 Ry

     iteration # 23     ecut=    60.00 Ry     beta= 0.70
     Davidson diagonalization with overlap
     ethr =  1.32E-10,  avg # of iterations =  5.8

     total cpu time spent up to now is      577.2 secs

     total energy              =    -306.87353628 Ry
     estimated scf accuracy    <       0.00000016 Ry

     iteration # 24     ecut=    60.00 Ry     beta= 0.70
     Davidson diagonalization with overlap
     ethr =  1.32E-10,  avg # of iterations =  1.1

     total cpu time spent up to now is      586.0 secs

     total energy              =    -306.87353633 Ry
     estimated scf accuracy    <       0.00000015 Ry

     iteration # 25     ecut=    60.00 Ry     beta= 0.70
     Davidson diagonalization with overlap
     ethr =  1.32E-10,  avg # of iterations =  2.3

     total cpu time spent up to now is      595.6 secs

     total energy              =    -306.87353631 Ry
     estimated scf accuracy    <       0.00000024 Ry

     iteration # 26     ecut=    60.00 Ry     beta= 0.70
     Davidson diagonalization with overlap
     ethr =  1.32E-10,  avg # of iterations =  1.0

     total cpu time spent up to now is      604.3 secs

     total energy              =    -306.87353616 Ry
     estimated scf accuracy    <       0.00000021 Ry

     iteration # 27     ecut=    60.00 Ry     beta= 0.70
     Davidson diagonalization with overlap
     ethr =  1.32E-10,  avg # of iterations =  8.0

     total cpu time spent up to now is      620.8 secs

     total energy              =    -306.87353622 Ry
     estimated scf accuracy    <       0.00000002 Ry

     iteration # 28     ecut=    60.00 Ry     beta= 0.70
     Davidson diagonalization with overlap
     ethr =  7.05E-11,  avg # of iterations =  1.6

     total cpu time spent up to now is      630.0 secs

     End of self-consistent calculation

          k = 0.0000 0.0000 0.0000 (  2671 PWs)   bands (ev):

   -39.7075 -39.6331 -18.8199 -18.4477 -18.4477 -18.3823 -18.3823 -18.3627
     4.0496   7.4646   9.7385  10.7466  10.7466  10.8819  11.1732

          k = 0.0000 0.0000 0.0794 (  2677 PWs)   bands (ev):

   -39.7047 -39.6359 -18.8033 -18.4452 -18.4452 -18.3847 -18.3847 -18.3807
     4.1542   7.3198   9.6936  10.7006  10.7006  10.8134  11.1141

          k = 0.0000 0.0000 0.1588 (  2689 PWs)   bands (ev):

   -39.6967 -39.6441 -18.7551 -18.4382 -18.4382 -18.4320 -18.3919 -18.3919
     4.4607   6.8887   9.6765  10.6215  10.6338  10.6338  10.9703

          k = 0.0000 0.0000 0.2382 (  2640 PWs)   bands (ev):

   -39.6847 -39.6562 -18.6823 -18.5074 -18.4274 -18.4274 -18.4024 -18.4024
     4.9462   6.2550   9.8040  10.3482  10.6212  10.6213  10.8091

          k =-0.0000-0.0000-0.3176 (  2628 PWs)   bands (ev):

   -39.6704 -39.6704 -18.5954 -18.5954 -18.4149 -18.4149 -18.4149 -18.4149
     5.5683   5.5683  10.0516  10.0516  10.6826  10.6826  10.6826

          k = 0.0000 0.0971 0.0000 (  2663 PWs)   bands (ev):

   -39.7037 -39.6316 -18.8102 -18.4677 -18.4543 -18.4032 -18.3851 -18.3669
     4.2049   7.5971   9.6016  10.4690  10.8608  11.0486  11.1272

          k = 0.0000 0.0971 0.0794 (  2668 PWs)   bands (ev):

   -39.7010 -39.6343 -18.7944 -18.4648 -18.4517 -18.4124 -18.3877 -18.3777
     4.3079   7.4526   9.5593  10.4641  10.8019  10.9191  11.0434

          k = 0.0000 0.0971 0.1588 (  2661 PWs)   bands (ev):

   -39.6933 -39.6422 -18.7492 -18.4570 -18.4497 -18.4442 -18.3960 -18.3952
     4.6098   7.0194   9.5575  10.4694  10.6353  10.7237  11.0571

          k = 0.0000 0.0971 0.2382 (  2656 PWs)   bands (ev):

   -39.6816 -39.6540 -18.6810 -18.5183 -18.4433 -18.4330 -18.4119 -18.4065
     5.0887   6.3855   9.7077  10.3084  10.5173  10.7076  10.7760

          k = 0.0000 0.0971-0.3176 (  2658 PWs)   bands (ev):

   -39.6678 -39.6678 -18.5999 -18.5999 -18.4280 -18.4280 -18.4198 -18.4198
     5.7037   5.7037   9.9797   9.9798  10.6231  10.6236  10.7690

          k = 0.0000 0.1943 0.0000 (  2665 PWs)   bands (ev):

   -39.6932 -39.6276 -18.7822 -18.5231 -18.4721 -18.4597 -18.3931 -18.3796
     4.6550   7.9514   9.2886  10.0393  10.8142  11.1902  11.2168

          k = 0.0000 0.1943 0.0794 (  2652 PWs)   bands (ev):

   -39.6907 -39.6301 -18.7697 -18.5185 -18.4705 -18.4691 -18.3961 -18.3864
     4.7528   7.8091   9.2577  10.0593  10.8049  10.9515  11.0289

          k = 0.0000 0.1943 0.1588 (  2651 PWs)   bands (ev):

   -39.6837 -39.6373 -18.7345 -18.5115 -18.4965 -18.4606 -18.4047 -18.4045
     5.0396   7.3724   9.2981  10.1174  10.5693  10.8156  10.9340

          k = 0.0000 0.1943 0.2382 (  2651 PWs)   bands (ev):

   -39.6731 -39.6480 -18.6817 -18.5572 -18.4811 -18.4478 -18.4290 -18.4176
     5.4958   6.7451   9.4948  10.1057  10.3454  10.6596  10.9279

          k = 0.0000 0.1943-0.3176 (  2650 PWs)   bands (ev):

   -39.6605 -39.6605 -18.6191 -18.6191 -18.4557 -18.4557 -18.4328 -18.4328
     6.0847   6.0847   9.7972   9.7972  10.4691  10.4691  11.0037

          k = 0.0000 0.2914 0.0000 (  2661 PWs)   bands (ev):

   -39.6782 -39.6228 -18.7399 -18.5995 -18.5344 -18.4955 -18.4050 -18.4006
     5.3512   8.3600   8.9509   9.6018  10.5920  10.8733  10.9618

          k = 0.0000 0.2914 0.0794 (  2648 PWs)   bands (ev):

   -39.6761 -39.6249 -18.7360 -18.5898 -18.5448 -18.4921 -18.4085 -18.4041
     5.4384   8.2263   8.9477   9.6339  10.5592  10.8166  10.9756

          k = 0.0000 0.2914 0.1588 (  2643 PWs)   bands (ev):

   -39.6701 -39.6310 -18.7227 -18.5857 -18.5504 -18.4823 -18.4183 -18.4166
     5.6944   7.8047   9.0533   9.7133  10.4038  10.7064  11.0276

          k = 0.0000 0.2914 0.2382 (  2639 PWs)   bands (ev):

   -39.6612 -39.6400 -18.6982 -18.6223 -18.5151 -18.4677 -18.4407 -18.4330
     6.1017   7.2247   9.2834   9.7520  10.2403  10.5283  11.1338

          k = 0.0000 0.2914-0.3176 (  2636 PWs)   bands (ev):

   -39.6506 -39.6506 -18.6631 -18.6631 -18.4752 -18.4752 -18.4504 -18.4504
     6.6289   6.6289   9.5644   9.5644  10.3204  10.3204  11.2945

          k = 0.0000 0.3885 0.0000 (  2648 PWs)   bands (ev):

   -39.6620 -39.6192 -18.6904 -18.6766 -18.6066 -18.5182 -18.4289 -18.4174
     6.2037   8.5084   8.6758   9.2681  10.6248  10.6258  10.7408

          k = 0.0000 0.3885 0.0794 (  2643 PWs)   bands (ev):

   -39.6604 -39.6208 -18.7188 -18.6429 -18.6120 -18.5144 -18.4286 -18.4213
     6.2711   8.3804   8.7348   9.3109  10.4680  10.7132  10.7926

          k = 0.0000 0.3885 0.1588 (  2641 PWs)   bands (ev):

   -39.6557 -39.6255 -18.7374 -18.6566 -18.5754 -18.5035 -18.4328 -18.4323
     6.4683   8.0545   8.8972   9.4021  10.3151  10.6611  10.9445

          k = 0.0000 0.3885 0.2382 (  2643 PWs)   bands (ev):

   -39.6488 -39.6324 -18.7377 -18.6911 -18.5243 -18.4873 -18.4490 -18.4487
     6.7805   7.6262   9.1297   9.4570  10.2248  10.4839  11.1854

          k = 0.0000 0.3885-0.3176 (  2644 PWs)   bands (ev):

   -39.6406 -39.6406 -18.7209 -18.7209 -18.4802 -18.4802 -18.4680 -18.4680
     7.1806   7.1806   9.3573   9.3573  10.2909  10.2909  11.4941

          k = 0.0000 0.4857 0.0000 (  2658 PWs)   bands (ev):

   -39.6485 -39.6182 -18.7334 -18.6582 -18.6442 -18.5344 -18.4594 -18.4269
     7.0592   8.3342   8.5012   9.0260  10.4560  10.5938  10.8474

          k = 0.0000 0.4857 0.0794 (  2650 PWs)   bands (ev):

   -39.6474 -39.6193 -18.7497 -18.6742 -18.6156 -18.5303 -18.4552 -18.4310
     7.0879   8.2439   8.6025   9.0533  10.4640  10.6587  10.7985

          k = 0.0000 0.4857 0.1588 (  2647 PWs)   bands (ev):

   -39.6441 -39.6226 -18.7710 -18.7066 -18.5659 -18.5188 -18.4504 -18.4427
     7.1776   8.0526   8.8049   9.1501  10.4535  10.6710  10.8501

          k = 0.0000 0.4857 0.2382 (  2649 PWs)   bands (ev):

   -39.6391 -39.6275 -18.7780 -18.7414 -18.5171 -18.5014 -18.4603 -18.4566
     7.3334   7.8042   9.0476   9.2654  10.3914  10.5204  11.1571

          k = 0.0000 0.4857-0.3176 (  2644 PWs)   bands (ev):

   -39.6333 -39.6333 -18.7674 -18.7674 -18.4809 -18.4809 -18.4790 -18.4790
     7.5499   7.5499   9.2434   9.2434  10.3971  10.3971  11.5596

          k =-0.0000-0.5828 0.0000 (  2642 PWs)   bands (ev):

   -39.6428 -39.6185 -18.7541 -18.6767 -18.6225 -18.5403 -18.4752 -18.4304
     7.5695   8.1028   8.4421   8.9137  10.3960  10.5426  10.9508

          k =-0.0000-0.5828 0.0794 (  2656 PWs)   bands (ev):

   -39.6419 -39.6195 -18.7670 -18.6914 -18.6010 -18.5362 -18.4690 -18.4346
     7.5406   8.0827   8.5651   8.9030  10.4570  10.6110  10.8757

          k =-0.0000-0.5828 0.1588 (  2642 PWs)   bands (ev):

   -39.6392 -39.6221 -18.7865 -18.7247 -18.5564 -18.5243 -18.4596 -18.4465
     7.5133   7.9923   8.8509   8.9439  10.5643  10.6866  10.8136

          k =-0.0000-0.5828 0.2382 (  2648 PWs)   bands (ev):

   -39.6353 -39.6260 -18.7943 -18.7597 -18.5117 -18.5066 -18.4645 -18.4604
     7.5511   7.8310   9.0845   9.1342  10.4988  10.5750  11.1392

          k =-0.0000-0.5828-0.3176 (  2652 PWs)   bands (ev):

   -39.6307 -39.6307 -18.7849 -18.7849 -18.4856 -18.4856 -18.4779 -18.4779
     7.6653   7.6653   9.2145   9.2145  10.4798  10.4798  11.5689

          k = 0.0841 0.1457 0.0000 (  2659 PWs)   bands (ev):

   -39.6966 -39.6288 -18.7912 -18.5015 -18.4755 -18.4343 -18.3932 -18.3753
     4.5079   7.8430   9.3823  10.1555  10.8960  11.0995  11.1658

          k = 0.0841 0.1457 0.0794 (  2657 PWs)   bands (ev):

   -39.6940 -39.6314 -18.7776 -18.4974 -18.4748 -18.4434 -18.3961 -18.3827
     4.6075   7.6996   9.3467  10.1708  10.9052  10.9182  10.9851

          k = 0.0841 0.1457 0.1588 (  2652 PWs)   bands (ev):

   -39.6867 -39.6388 -18.7388 -18.4903 -18.4857 -18.4549 -18.4043 -18.4002
     4.8997   7.2631   9.3731  10.2202  10.5969  10.8408  10.8903

          k = 0.0841 0.1457 0.2382 (  2652 PWs)   bands (ev):

   -39.6758 -39.6499 -18.6805 -18.5434 -18.4681 -18.4472 -18.4209 -18.4163
     5.3640   6.6318   9.5573  10.1866  10.3780  10.6873  10.8734

          k = 0.0841 0.1457-0.3176 (  2640 PWs)   bands (ev):

   -39.6628 -39.6628 -18.6115 -18.6115 -18.4482 -18.4482 -18.4288 -18.4288
     5.9627   5.9627   9.8558   9.8558  10.5095  10.5096  10.9321

          k = 0.0841 0.2428 0.0000 (  2659 PWs)   bands (ev):

   -39.6838 -39.6245 -18.7561 -18.5622 -18.5248 -18.4722 -18.4073 -18.3922
     5.0833   8.2452   9.0768   9.7286  10.6622  10.8578  11.1608

          k = 0.0841 0.2428 0.0794 (  2655 PWs)   bands (ev):

   -39.6816 -39.6268 -18.7479 -18.5556 -18.5292 -18.4760 -18.4108 -18.3958
     5.1753   8.1068   9.0576   9.7573  10.6684  10.7847  11.0802

          k = 0.0841 0.2428 0.1588 (  2645 PWs)   bands (ev):

   -39.6752 -39.6332 -18.7244 -18.5570 -18.5297 -18.4770 -18.4206 -18.4078
     5.4452   7.6709   9.1365   9.8358  10.4782  10.7109  11.0267

          k = 0.0841 0.2428 0.2382 (  2641 PWs)   bands (ev):

   -39.6656 -39.6429 -18.6879 -18.5958 -18.5019 -18.4694 -18.4353 -18.4275
     5.8750   7.0611   9.3595   9.8814  10.2584  10.5418  11.0815

          k = 0.0841 0.2428-0.3176 (  2644 PWs)   bands (ev):

   -39.6542 -39.6542 -18.6429 -18.6429 -18.4729 -18.4729 -18.4435 -18.4435
     6.4317   6.4317   9.6582   9.6582  10.3369  10.3369  11.1924

          k = 0.0841 0.3400 0.0000 (  2653 PWs)   bands (ev):

   -39.6681 -39.6203 -18.7098 -18.6376 -18.5846 -18.5073 -18.4224 -18.4172
     5.8656   8.5600   8.7947   9.3461  10.5612  10.5972  10.9134

          k = 0.0841 0.3400 0.0794 (  2647 PWs)   bands (ev):

   -39.6663 -39.6222 -18.7172 -18.6225 -18.5885 -18.5073 -18.4279 -18.4156
     5.9433   8.4277   8.8229   9.3855  10.4565  10.6801  10.8920

          k = 0.0841 0.3400 0.1588 (  2640 PWs)   bands (ev):

   -39.6612 -39.6274 -18.7230 -18.6289 -18.5660 -18.5021 -18.4397 -18.4195
     6.1711   8.0386   8.9683   9.4795  10.3068  10.6304  10.9619

          k = 0.0841 0.3400 0.2382 (  2647 PWs)   bands (ev):

   -39.6534 -39.6351 -18.7153 -18.6613 -18.5237 -18.4898 -18.4552 -18.4344
     6.5329   7.5252   9.2016   9.5547  10.1689  10.4269  11.1600

          k = 0.0841 0.3400-0.3176 (  2644 PWs)   bands (ev):

   -39.6443 -39.6443 -18.6932 -18.6932 -18.4908 -18.4908 -18.4560 -18.4560
     6.9996   6.9996   9.4477   9.4477  10.2178  10.2178  11.4075

          k = 0.0841 0.4371 0.0000 (  2651 PWs)   bands (ev):

   -39.6531 -39.6182 -18.7043 -18.6605 -18.6368 -18.5346 -18.4479 -18.4354
     6.7389   8.5192   8.5902   9.0888  10.4313  10.6724  10.7403

          k = 0.0841 0.4371 0.0794 (  2648 PWs)   bands (ev):

   -39.6517 -39.6196 -18.7265 -18.6581 -18.6192 -18.5317 -18.4488 -18.4350
     6.7902   8.3967   8.6791   9.1406  10.3824  10.6622  10.7744

          k = 0.0841 0.4371 0.1588 (  2650 PWs)   bands (ev):

   -39.6480 -39.6233 -18.7490 -18.6851 -18.5727 -18.5202 -18.4584 -18.4336
     6.9406   8.1475   8.8544   9.2575  10.2780  10.5592  10.9219

          k = 0.0841 0.4371 0.2382 (  2645 PWs)   bands (ev):

   -39.6423 -39.6290 -18.7552 -18.7179 -18.5323 -18.4994 -18.4729 -18.4409
     7.1794   7.8250   9.0906   9.3554  10.1875  10.3681  11.1804

          k = 0.0841 0.4371-0.3176 (  2660 PWs)   bands (ev):

   -39.6357 -39.6357 -18.7438 -18.7438 -18.5046 -18.5046 -18.4609 -18.4609
     7.4856   7.4856   9.3033   9.3033  10.2062  10.2062  11.5191

          k = 0.0841 0.5342 0.0000 (  2652 PWs)   bands (ev):

   -39.6429 -39.6185 -18.7429 -18.6671 -18.6229 -18.5495 -18.4749 -18.4429
     7.4957   8.2672   8.4845   8.9084  10.3744  10.5045  10.9450

          k = 0.0841 0.5342 0.0794 (  2642 PWs)   bands (ev):

   -39.6419 -39.6194 -18.7557 -18.6822 -18.6030 -18.5433 -18.4710 -18.4444
     7.4947   8.2185   8.5958   8.9255  10.3937  10.5158  10.9269

          k = 0.0841 0.5342 0.1588 (  2651 PWs)   bands (ev):

   -39.6393 -39.6220 -18.7753 -18.7154 -18.5680 -18.5229 -18.4735 -18.4440
     7.5157   8.0964   8.8293   9.0294  10.3946  10.4680  10.9900

          k = 0.0841 0.5342 0.2382 (  2647 PWs)   bands (ev):

   -39.6353 -39.6260 -18.7833 -18.7498 -18.5384 -18.4950 -18.4855 -18.4460
     7.5929   7.9171   9.0770   9.2154  10.2743  10.3673  11.2377

          k = 0.0841 0.5342-0.3176 (  2644 PWs)   bands (ev):

   -39.6307 -39.6307 -18.7745 -18.7745 -18.5132 -18.5132 -18.4612 -18.4612
     7.7338   7.7338   9.2575   9.2575  10.2475  10.2475  11.6023

          k = 0.1682 0.2914 0.0000 (  2660 PWs)   bands (ev):

   -39.6703 -39.6208 -18.7165 -18.6040 -18.5960 -18.4945 -18.4332 -18.4134
     5.7506   8.6030   8.8545   9.3443  10.5469  10.5498  11.0076

          k = 0.1682 0.2914 0.0794 (  2652 PWs)   bands (ev):

   -39.6685 -39.6227 -18.7184 -18.6006 -18.5892 -18.5005 -18.4366 -18.4123
     5.8318   8.4669   8.8684   9.3795  10.4973  10.6004  10.9486

          k = 0.1682 0.2914 0.1588 (  2642 PWs)   bands (ev):

   -39.6631 -39.6281 -18.7171 -18.6181 -18.5544 -18.5070 -18.4458 -18.4156
     6.0702   8.0469   9.0066   9.4769  10.3465  10.5895  10.9365

          k = 0.1682 0.2914 0.2382 (  2646 PWs)   bands (ev):

   -39.6551 -39.6361 -18.7046 -18.6480 -18.5161 -18.5035 -18.4563 -18.4300
     6.4495   7.4973   9.2409   9.5798  10.1595  10.3822  11.1171

          k = 0.1682 0.2914-0.3176 (  2650 PWs)   bands (ev):

   -39.6456 -39.6456 -18.6800 -18.6800 -18.4977 -18.4977 -18.4517 -18.4517
     6.9406   6.9406   9.4931   9.4931  10.1703  10.1703  11.3495

          k = 0.1682 0.3885 0.0000 (  2647 PWs)   bands (ev):

   -39.6556 -39.6184 -18.6693 -18.6660 -18.6333 -18.5304 -18.4577 -18.4420
     6.5745   8.6827   8.7531   9.0435  10.3309  10.6438  10.7608

          k = 0.1682 0.3885 0.0794 (  2652 PWs)   bands (ev):

   -39.6542 -39.6198 -18.7014 -18.6563 -18.6073 -18.5360 -18.4626 -18.4352
     6.6379   8.5668   8.8131   9.0913  10.2960  10.6648  10.7076

          k = 0.1682 0.3885 0.1588 (  2651 PWs)   bands (ev):

   -39.6501 -39.6238 -18.7243 -18.6720 -18.5647 -18.5370 -18.4722 -18.4283
     6.8235   8.2825   8.9638   9.2059  10.2000  10.4713  10.8387

          k = 0.1682 0.3885 0.2382 (  2648 PWs)   bands (ev):

   -39.6441 -39.6299 -18.7303 -18.6973 -18.5421 -18.5206 -18.4745 -18.4335
     7.1161   7.8982   9.1753   9.3380  10.0681  10.2175  11.0764

          k = 0.1682 0.3885-0.3176 (  2652 PWs)   bands (ev):

   -39.6370 -39.6370 -18.7199 -18.7199 -18.5264 -18.5264 -18.4528 -18.4528
     7.4885   7.4885   9.3532   9.3532  10.0360  10.0360  11.3959

          k = 0.1682 0.4857 0.0000 (  2638 PWs)   bands (ev):

   -39.6429 -39.6184 -18.7136 -18.6507 -18.6237 -18.5654 -18.4742 -18.4740
     7.4055   8.5714   8.5799   8.8868  10.2501  10.5032  10.9103

          k = 0.1682 0.4857 0.0794 (  2651 PWs)   bands (ev):

   -39.6420 -39.6193 -18.7258 -18.6700 -18.6027 -18.5596 -18.4848 -18.4587
     7.4384   8.4731   8.6748   8.9588  10.2247  10.4375  10.9260

          k = 0.1682 0.4857 0.1588 (  2651 PWs)   bands (ev):

   -39.6393 -39.6220 -18.7460 -18.6988 -18.5869 -18.5316 -18.4943 -18.4431
     7.5362   8.3185   8.8458   9.1263  10.1384  10.2571  11.0104

          k = 0.1682 0.4857 0.2382 (  2650 PWs)   bands (ev):

   -39.6354 -39.6260 -18.7560 -18.7287 -18.5702 -18.5288 -18.4774 -18.4388
     7.6938   8.1170   9.0887   9.3056  10.0033  10.0193  11.2000

          k = 0.1682 0.4857-0.3176 (  2656 PWs)   bands (ev):

   -39.6307 -39.6307 -18.7499 -18.7499 -18.5490 -18.5490 -18.4509 -18.4509
     7.8966   7.8966   9.3155   9.3155   9.9024   9.9024  11.4932

          k = 0.1682 0.5828 0.0000 (  2648 PWs)   bands (ev):

   -39.6373 -39.6194 -18.7309 -18.6550 -18.6005 -18.5804 -18.4924 -18.4801
     7.9028   8.3629   8.5461   8.7926  10.3102  10.3188  11.0427

          k = 0.1682 0.5828 0.0794 (  2643 PWs)   bands (ev):

   -39.6366 -39.6201 -18.7404 -18.6710 -18.6058 -18.5545 -18.4983 -18.4689
     7.8868   8.3524   8.6501   8.8207  10.2748  10.2843  11.0533

          k = 0.1682 0.5828 0.1588 (  2656 PWs)   bands (ev):

   -39.6347 -39.6221 -18.7578 -18.7052 -18.5988 -18.5129 -18.5127 -18.4508
     7.8819   8.2911   8.9043   8.9378  10.1509  10.1688  11.1278

          k = 0.1682 0.5828 0.2382 (  2649 PWs)   bands (ev):

   -39.6318 -39.6249 -18.7671 -18.7387 -18.5809 -18.5334 -18.4749 -18.4420
     7.9313   8.1709   9.1517   9.2095   9.9257   9.9924  11.3093

          k = 0.1682 0.5828-0.3176 (  2648 PWs)   bands (ev):

   -39.6283 -39.6283 -18.7608 -18.7608 -18.5575 -18.5575 -18.4499 -18.4499
     8.0363   8.0363   9.3512   9.3512   9.8113   9.8113  11.5876

          k = 0.2524 0.4371 0.0000 (  2640 PWs)   bands (ev):

   -39.6430 -39.6183 -18.6886 -18.6547 -18.6241 -18.5643 -18.4972 -18.4737
     7.3733   8.6342   8.7766   8.8236  10.1686  10.5163  10.8762

          k = 0.2524 0.4371 0.0794 (  2643 PWs)   bands (ev):

   -39.6421 -39.6193 -18.6908 -18.6873 -18.5866 -18.5761 -18.5000 -18.4613
     7.4194   8.5726   8.8152   8.9043  10.1538  10.4075  10.8847

          k = 0.2524 0.4371 0.1588 (  2646 PWs)   bands (ev):

   -39.6394 -39.6220 -18.7194 -18.7014 -18.5888 -18.5489 -18.4999 -18.4431
     7.5524   8.4386   8.9297   9.0728  10.0887  10.1538  10.9379

          k = 0.2524 0.4371 0.2382 (  2655 PWs)   bands (ev):

   -39.6354 -39.6260 -18.7356 -18.7199 -18.5843 -18.5501 -18.4742 -18.4368
     7.7554   8.2412   9.1088   9.2595   9.8837   9.9495  11.0971

          k = 0.2524 0.4371-0.3176 (  2660 PWs)   bands (ev):

   -39.6307 -39.6307 -18.7346 -18.7346 -18.5680 -18.5680 -18.4478 -18.4478
     7.9989   7.9989   9.2903   9.2903   9.8007   9.8007  11.3902

          k = 0.2524 0.5342 0.0000 (  2639 PWs)   bands (ev):

   -39.6334 -39.6207 -18.7055 -18.6421 -18.6027 -18.5835 -18.5221 -18.5063
     8.0634   8.5990   8.6264   8.7219  10.1455  10.2851  11.1073

          k = 0.2524 0.5342 0.0794 (  2642 PWs)   bands (ev):

   -39.6329 -39.6212 -18.7089 -18.6640 -18.6205 -18.5540 -18.5273 -18.4871
     8.0890   8.5649   8.6740   8.8092  10.1063  10.1865  11.1098

          k = 0.2524 0.5342 0.1588 (  2642 PWs)   bands (ev):

   -39.6315 -39.6225 -18.7232 -18.6946 -18.6315 -18.5515 -18.5005 -18.4593
     8.1607   8.5213   8.8079   9.0005   9.9333   9.9890  11.1423

          k = 0.2524 0.5342 0.2382 (  2657 PWs)   bands (ev):

   -39.6294 -39.6246 -18.7374 -18.7219 -18.6200 -18.5727 -18.4651 -18.4429
     8.2632   8.4616   9.0249   9.2499   9.6224   9.7835  11.2563

          k = 0.2524 0.5342-0.3176 (  2654 PWs)   bands (ev):

   -39.6270 -39.6270 -18.7377 -18.7377 -18.5975 -18.5975 -18.4445 -18.4445
     8.3722   8.3722   9.3050   9.3050   9.5255   9.5255  11.4922

          k = 0.3365 0.5828 0.0000 (  2616 PWs)   bands (ev):

   -39.6257 -39.6257 -18.6952 -18.6259 -18.6259 -18.5501 -18.5435 -18.5435
     8.5077   8.5077   8.6063   8.6593  10.1476  10.1476  11.2056

          k = 0.3365 0.5828 0.0794 (  2640 PWs)   bands (ev):

   -39.6257 -39.6257 -18.6899 -18.6508 -18.6508 -18.5558 -18.5184 -18.5184
     8.5537   8.5537   8.6250   8.6805  10.0685  10.0685  11.2027

          k = 0.3365 0.5828 0.1588 (  2667 PWs)   bands (ev):

   -39.6257 -39.6257 -18.6885 -18.6885 -18.6744 -18.5718 -18.4802 -18.4802
     8.6751   8.6851   8.6851   8.7304   9.8642   9.8642  11.2166

          k = 0.3365 0.5828 0.2382 (  2661 PWs)   bands (ev):

   -39.6257 -39.6257 -18.7155 -18.7155 -18.6510 -18.5955 -18.4523 -18.4523
     8.7361   8.7741   8.8733   8.8733   9.6119   9.6119  11.3021

          k = 0.3365 0.5828-0.3176 (  2652 PWs)   bands (ev):

   -39.6257 -39.6257 -18.7252 -18.7252 -18.6233 -18.6233 -18.4423 -18.4423
     8.7774   8.7774   9.0013   9.0013   9.4594   9.4594  11.5118

     the Fermi energy is     9.1716 ev

!    total energy              =    -306.87353622 Ry
     total all-electron energy =     -3050.014307 Ry
     estimated scf accuracy    <          4.5E-09 Ry
     smearing contrib. (-TS)   =      -0.00101304 Ry
     internal energy E=F+TS    =    -306.87252317 Ry

     The total energy is F=E-TS. E is the sum of the following terms:
     one-electron contribution =     -72.39549711 Ry
     hartree contribution      =      41.63600082 Ry
     xc contribution           =     -34.56862881 Ry
     ewald contribution        =    -127.78618339 Ry
     one-center paw contrib.   =    -113.75821468 Ry

     convergence has been achieved in  28 iterations

     Forces acting on atoms (cartesian axes, Ry/au):

     atom    1 type  1   force =    -0.00000000    0.00000000    0.00000000
     atom    2 type  1   force =     0.00000000   -0.00000000    0.00000000
     The non-local contrib.  to forces
     atom    1 type  1   force =    -0.00000000   -0.00000000    0.00000000
     atom    2 type  1   force =     0.00000000    0.00000000    0.00000000
     The ionic contribution  to forces
     atom    1 type  1   force =     0.00000000   -0.00000000    0.00000000
     atom    2 type  1   force =    -0.00000000    0.00000000    0.00000000
     The local contribution  to forces
     atom    1 type  1   force =    -0.00000000    0.00000000    0.00000000
     atom    2 type  1   force =    -0.00000000    0.00000000    0.00000000
     The core correction contribution to forces
     atom    1 type  1   force =     0.00000000   -0.00000000    0.00000000
     atom    2 type  1   force =     0.00000000   -0.00000000   -0.00000000
     The Hubbard contrib.    to forces
     atom    1 type  1   force =     0.00000000    0.00000000    0.00000000
     atom    2 type  1   force =     0.00000000    0.00000000    0.00000000
     The SCF correction term to forces
     atom    1 type  1   force =     0.00000000    0.00000000    0.00000000
     atom    2 type  1   force =     0.00000000    0.00000000    0.00000000

     Total force =     0.000000     Total SCF correction =     0.000000


     Computing stress (Cartesian axis) and pressure

          total   stress  (Ry/bohr**3)                   (kbar)     P=      -47.18
  -0.00028128   0.00000000   0.00000000          -41.38        0.00        0.00
   0.00000000  -0.00028128   0.00000000            0.00      -41.38        0.00
   0.00000000   0.00000000  -0.00039962            0.00        0.00      -58.79

     Energy error            =      3.9E-03 Ry
     Gradient error          =      1.6E-27 Ry/Bohr
     Cell gradient error     =      5.9E+01 kbar

     number of scf cycles    =   2
     number of bfgs steps    =   1

     enthalpy           old  =    -306.8696323816 Ry
     enthalpy           new  =    -306.8735362181 Ry

     CASE: enthalpy          _new < enthalpy          _old

     new trust radius        =       0.0679300985 bohr
     new conv_thr            =            1.0E-10 Ry

     new unit-cell volume =    312.62326 a.u.^3 (    46.32599 Ang^3 )
     density =      3.19706 g/cm^3

CELL_PARAMETERS (alat=  6.25310370)
   0.977632811   0.000000000   0.000000000
  -0.488816406   0.846654850   0.000000000
   0.000000000   0.000000000   1.544728710

ATOMIC_POSITIONS (crystal)
Sc           -0.0000000000        0.0000000000        0.0000000000
Sc            0.6666666667        0.3333333333        0.5000000000



     Writing config-only to output data dir sc_vcrelax.out/scandium.save/
     NEW-OLD atomic charge density approx. for the potential

     Check: negative core charge=   -0.000039
     extrapolated charge   20.97806, renormalised to   22.00000

     total cpu time spent up to now is      644.1 secs

     Self-consistent Calculation

     iteration #  1     ecut=    60.00 Ry     beta= 0.70
     Davidson diagonalization with overlap
     c_bands:  1 eigenvalues not converged
     c_bands:  2 eigenvalues not converged
     c_bands:  2 eigenvalues not converged
     c_bands:  3 eigenvalues not converged
     c_bands:  1 eigenvalues not converged
     c_bands:  2 eigenvalues not converged
     c_bands:  3 eigenvalues not converged
     c_bands:  4 eigenvalues not converged
     c_bands:  4 eigenvalues not converged
     c_bands:  2 eigenvalues not converged
     c_bands:  2 eigenvalues not converged
     c_bands:  2 eigenvalues not converged
     c_bands:  1 eigenvalues not converged
     c_bands:  3 eigenvalues not converged
     c_bands:  3 eigenvalues not converged
     c_bands:  3 eigenvalues not converged
     c_bands:  5 eigenvalues not converged
     c_bands:  3 eigenvalues not converged
     c_bands:  5 eigenvalues not converged
     c_bands:  5 eigenvalues not converged
     c_bands:  5 eigenvalues not converged
     c_bands:  2 eigenvalues not converged
     c_bands:  3 eigenvalues not converged
     c_bands:  2 eigenvalues not converged
     c_bands:  2 eigenvalues not converged
     c_bands:  5 eigenvalues not converged
     c_bands:  3 eigenvalues not converged
     c_bands:  4 eigenvalues not converged
     c_bands:  4 eigenvalues not converged
     c_bands:  2 eigenvalues not converged
     c_bands:  1 eigenvalues not converged
     c_bands:  2 eigenvalues not converged
     c_bands:  2 eigenvalues not converged
     c_bands:  4 eigenvalues not converged
     c_bands:  1 eigenvalues not converged
     c_bands:  2 eigenvalues not converged
     c_bands:  5 eigenvalues not converged
     c_bands:  2 eigenvalues not converged
     c_bands:  2 eigenvalues not converged
     c_bands:  3 eigenvalues not converged
     c_bands:  3 eigenvalues not converged
     c_bands:  3 eigenvalues not converged
     c_bands:  3 eigenvalues not converged
     c_bands:  3 eigenvalues not converged
     c_bands:  1 eigenvalues not converged
     c_bands:  1 eigenvalues not converged
     c_bands:  3 eigenvalues not converged
     c_bands:  4 eigenvalues not converged
     c_bands:  3 eigenvalues not converged
     c_bands:  3 eigenvalues not converged
     c_bands:  4 eigenvalues not converged
     c_bands:  3 eigenvalues not converged
     c_bands:  2 eigenvalues not converged
     c_bands:  5 eigenvalues not converged
     c_bands:  5 eigenvalues not converged
     c_bands:  3 eigenvalues not converged
     c_bands:  1 eigenvalues not converged
     c_bands:  3 eigenvalues not converged
     c_bands:  4 eigenvalues not converged
     c_bands:  2 eigenvalues not converged
     c_bands:  2 eigenvalues not converged
     c_bands:  4 eigenvalues not converged
     c_bands:  4 eigenvalues not converged
     c_bands:  4 eigenvalues not converged
     c_bands:  1 eigenvalues not converged
     c_bands:  4 eigenvalues not converged
     c_bands:  5 eigenvalues not converged
     c_bands:  5 eigenvalues not converged
     c_bands:  4 eigenvalues not converged
     c_bands:  1 eigenvalues not converged
     c_bands:  2 eigenvalues not converged
     c_bands:  2 eigenvalues not converged
     c_bands:  4 eigenvalues not converged
     ethr =  1.00E-06,  avg # of iterations = 21.3

     total cpu time spent up to now is      697.0 secs

     total energy              =    -306.57509729 Ry
     estimated scf accuracy    <       0.22083500 Ry

     iteration #  2     ecut=    60.00 Ry     beta= 0.70
     Davidson diagonalization with overlap
     ethr =  1.00E-03,  avg # of iterations =  7.2

     total cpu time spent up to now is      716.5 secs

     total energy              =    -306.88551415 Ry
     estimated scf accuracy    <       0.35772587 Ry

     iteration #  3     ecut=    60.00 Ry     beta= 0.70
     Davidson diagonalization with overlap
     ethr =  1.00E-03,  avg # of iterations =  1.2

     total cpu time spent up to now is      725.3 secs

     total energy              =    -306.87529741 Ry
     estimated scf accuracy    <       0.10580101 Ry

     iteration #  4     ecut=    60.00 Ry     beta= 0.70
     Davidson diagonalization with overlap
     ethr =  4.81E-04,  avg # of iterations =  2.2

     total cpu time spent up to now is      735.4 secs

     total energy              =    -306.87302691 Ry
     estimated scf accuracy    <       0.04711920 Ry

     iteration #  5     ecut=    60.00 Ry     beta= 0.70
     Davidson diagonalization with overlap
     ethr =  2.14E-04,  avg # of iterations =  2.2

     total cpu time spent up to now is      745.1 secs

     total energy              =    -306.87693411 Ry
     estimated scf accuracy    <       0.02321192 Ry

     iteration #  6     ecut=    60.00 Ry     beta= 0.70
     Davidson diagonalization with overlap
     ethr =  1.06E-04,  avg # of iterations =  2.8

     total cpu time spent up to now is      754.9 secs

     total energy              =    -306.88350839 Ry
     estimated scf accuracy    <       0.02081838 Ry

     iteration #  7     ecut=    60.00 Ry     beta= 0.70
     Davidson diagonalization with overlap
     ethr =  9.46E-05,  avg # of iterations =  1.4

     total cpu time spent up to now is      763.9 secs

     total energy              =    -306.88601117 Ry
     estimated scf accuracy    <       0.02657089 Ry

[...]
     7.2221   9.3232   9.6706  10.2682  11.6246  11.7797  11.9278

          k =-0.0000 0.3959 0.1663 (  2373 PWs)   bands (ev):

   -38.4414 -38.3939 -17.6083 -17.4855 -17.3752 -17.2978 -17.1919 -17.1846
     7.4260   9.0448   9.8118  10.3791  11.4461  11.8649  11.9526

          k =-0.0000 0.3959 0.2494 (  2358 PWs)   bands (ev):

   -38.4305 -38.4048 -17.6078 -17.5377 -17.3045 -17.2736 -17.2163 -17.2030
     7.7486   8.6180  10.0787  10.4558  11.3376  11.6474  12.2281

          k =-0.0000 0.3959-0.3325 (  2374 PWs)   bands (ev):

   -38.4176 -38.4176 -17.5824 -17.5824 -17.2452 -17.2452 -17.2441 -17.2441
     8.1613   8.1613  10.3474  10.3474  11.4124  11.4124  12.5830

          k =-0.0000 0.4949-0.0000 (  2353 PWs)   bands (ev):

   -38.4321 -38.3844 -17.5795 -17.4882 -17.4681 -17.3399 -17.2309 -17.1801
     8.0072   9.1857   9.4315  10.0014  11.5589  11.6529  12.0950

          k =-0.0000 0.4949 0.0831 (  2356 PWs)   bands (ev):

   -38.4302 -38.3862 -17.6093 -17.4964 -17.4389 -17.3340 -17.2216 -17.1863
     8.0272   9.1301   9.5238  10.0267  11.6334  11.6609  12.0358

          k =-0.0000 0.4949 0.1663 (  2362 PWs)   bands (ev):

   -38.4251 -38.3914 -17.6433 -17.5465 -17.3658 -17.3169 -17.2089 -17.2039
     8.0993   8.9669   9.7415  10.1441  11.6383  11.8537  11.8861

          k =-0.0000 0.4949 0.2494 (  2366 PWs)   bands (ev):

   -38.4174 -38.3991 -17.6543 -17.5996 -17.2958 -17.2912 -17.2301 -17.2132
     8.2423   8.7190  10.0220  10.2974  11.5443  11.7149  12.2078

          k =-0.0000 0.4949-0.3325 (  2356 PWs)   bands (ev):

   -38.4082 -38.4082 -17.6387 -17.6387 -17.2607 -17.2607 -17.2424 -17.2424
     8.4579   8.4579  10.2658  10.2658  11.5573  11.5573  12.6742

          k = 0.0000-0.5939 0.0000 (  2348 PWs)   bands (ev):

   -38.4238 -38.3858 -17.6049 -17.4905 -17.4585 -17.3474 -17.2537 -17.1841
     8.4996   8.9645   9.3479   9.9020  11.5024  11.6038  12.2146

          k = 0.0000-0.5939 0.0831 (  2348 PWs)   bands (ev):

   -38.4224 -38.3872 -17.6282 -17.5150 -17.4227 -17.3412 -17.2409 -17.1903
     8.4469   8.9582   9.5093   9.8741  11.5816  11.6758  12.1214

          k = 0.0000-0.5939 0.1663 (  2354 PWs)   bands (ev):

   -38.4183 -38.3913 -17.6606 -17.5681 -17.3547 -17.3238 -17.2214 -17.2083
     8.3892   8.8881   9.8632   9.8950  11.8002  11.8147  11.8874

          k = 0.0000-0.5939 0.2494 (  2346 PWs)   bands (ev):

   -38.4121 -38.3975 -17.6732 -17.6218 -17.2975 -17.2892 -17.2351 -17.2184
     8.4168   8.7217  10.0602  10.1925  11.6622  11.8050  12.1918

          k = 0.0000-0.5939-0.3325 (  2340 PWs)   bands (ev):

   -38.4048 -38.4048 -17.6596 -17.6596 -17.2663 -17.2663 -17.2412 -17.2412
     8.5391   8.5391  10.2473  10.2473  11.6669  11.6670  12.6917

          k = 0.0857 0.1485-0.0000 (  2375 PWs)   bands (ev):

   -38.4991 -38.3928 -17.6868 -17.2947 -17.2634 -17.1974 -17.1439 -17.1085
     5.3922   8.7667  10.6497  11.1616  12.0460  12.1973  12.2167

          k = 0.0857 0.1485 0.0831 (  2375 PWs)   bands (ev):

   -38.4951 -38.3968 -17.6683 -17.2885 -17.2611 -17.2115 -17.1482 -17.1187
     5.5032   8.6684  10.5433  11.1734  12.0242  12.0530  12.0851

          k = 0.0857 0.1485 0.1663 (  2378 PWs)   bands (ev):

   -38.4837 -38.4085 -17.6154 -17.2756 -17.2708 -17.2343 -17.1604 -17.1438
     5.8276   8.3076  10.4515  11.2132  11.7499  11.8962  12.0218

          k = 0.0857 0.1485 0.2494 (  2382 PWs)   bands (ev):

   -38.4665 -38.4258 -17.5358 -17.3481 -17.2441 -17.2227 -17.1785 -17.1752
     6.3389   7.6919  10.5856  11.1944  11.5019  11.7954  11.9126

          k = 0.0857 0.1485-0.3325 (  2368 PWs)   bands (ev):

   -38.4462 -38.4462 -17.4415 -17.4415 -17.2147 -17.2147 -17.1966 -17.1966
     6.9882   6.9882  10.8881  10.8881  11.6021  11.6022  11.9690

          k = 0.0857 0.2474-0.0000 (  2377 PWs)   bands (ev):

   -38.4815 -38.3884 -17.6396 -17.3687 -17.3189 -17.2502 -17.1597 -17.1335
     5.9965   9.1639  10.2278  10.6848  11.8242  11.9007  12.2412

          k = 0.0857 0.2474 0.0831 (  2377 PWs)   bands (ev):

   -38.4780 -38.3920 -17.6289 -17.3589 -17.3230 -17.2590 -17.1649 -17.1371
     6.0977   9.0853  10.1369  10.7158  11.7902  11.9117  12.1345

          k = 0.0857 0.2474 0.1663 (  2374 PWs)   bands (ev):

   -38.4680 -38.4021 -17.5975 -17.3617 -17.3208 -17.2632 -17.1791 -17.1518
     6.3938   8.7320  10.1150  10.7996  11.5866  11.8915  12.0516

          k = 0.0857 0.2474 0.2494 (  2370 PWs)   bands (ev):

   -38.4529 -38.4173 -17.5479 -17.4182 -17.2803 -17.2497 -17.1996 -17.1805
     6.8623   8.1260  10.3209  10.8519  11.3681  11.6818  12.1198

          k = 0.0857 0.2474-0.3325 (  2360 PWs)   bands (ev):

   -38.4351 -38.4351 -17.4852 -17.4852 -17.2421 -17.2421 -17.2111 -17.2111
     7.4623   7.4623  10.6362  10.6362  11.4433  11.4433  12.2489

          k = 0.0857 0.3464-0.0000 (  2373 PWs)   bands (ev):

   -38.4598 -38.3847 -17.5772 -17.4615 -17.3853 -17.3003 -17.1766 -17.1703
     6.8086   9.4512   9.8346  10.2796  11.6455  11.7552  12.0004

          k = 0.0857 0.3464 0.0831 (  2368 PWs)   bands (ev):

   -38.4569 -38.3876 -17.5864 -17.4415 -17.3911 -17.3021 -17.1843 -17.1658
     6.8916   9.4034   9.7843  10.3265  11.5588  11.8340  11.9618

          k = 0.0857 0.3464 0.1663 (  2366 PWs)   bands (ev):

   -38.4488 -38.3958 -17.5934 -17.4520 -17.3626 -17.2951 -17.2011 -17.1676
     7.1345   9.0761   9.8844  10.4364  11.4054  11.8094  11.9979

          k = 0.0857 0.3464 0.2494 (  2368 PWs)   bands (ev):

   -38.4367 -38.4080 -17.5815 -17.5011 -17.3064 -17.2732 -17.2236 -17.1867
     7.5185   8.5578  10.1428  10.5308  11.2594  11.5635  12.2183

          k = 0.0857 0.3464-0.3325 (  2362 PWs)   bands (ev):

   -38.4223 -38.4223 -17.5488 -17.5488 -17.2670 -17.2670 -17.2206 -17.2206
     8.0102   8.0102  10.4216  10.4216  11.3161  11.3161  12.4948

          k = 0.0857 0.4454-0.0000 (  2357 PWs)   bands (ev):

   -38.4385 -38.3839 -17.5439 -17.5105 -17.4445 -17.3377 -17.2147 -17.1911
     7.6960   9.3793   9.5430  10.0405  11.4924  11.7648  11.9696

          k = 0.0857 0.4454 0.0831 (  2359 PWs)   bands (ev):

   -38.4365 -38.3860 -17.5845 -17.4843 -17.4354 -17.3342 -17.2117 -17.1917
     7.7453   9.3194   9.5837  10.1007  11.4827  11.7363  11.9754

          k = 0.0857 0.4454 0.1663 (  2364 PWs)   bands (ev):

   -38.4305 -38.3919 -17.6187 -17.5214 -17.3751 -17.3157 -17.2233 -17.1872
     7.8915   9.0979   9.7667  10.2443  11.3980  11.6909  12.0239

          k = 0.0857 0.4454 0.2494 (  2360 PWs)   bands (ev):

   -38.4217 -38.4008 -17.6276 -17.5713 -17.3238 -17.2790 -17.2445 -17.1944
     8.1273   8.7774  10.0488  10.3738  11.2922  11.4993  12.2690

          k = 0.0857 0.4454-0.3325 (  2360 PWs)   bands (ev):

   -38.4112 -38.4112 -17.6102 -17.6102 -17.2874 -17.2874 -17.2224 -17.2224
     8.4346   8.4346  10.3129  10.3129  11.3110  11.3110  12.6430

          k = 0.0857 0.5444-0.0000 (  2355 PWs)   bands (ev):

   -38.4239 -38.3857 -17.5915 -17.4793 -17.4591 -17.3578 -17.2531 -17.1996
     8.4366   9.1308   9.3894   9.8836  11.4465  11.5987  12.2016

          k = 0.0857 0.5444 0.0831 (  2352 PWs)   bands (ev):

   -38.4225 -38.3872 -17.6147 -17.5053 -17.4258 -17.3483 -17.2431 -17.2026
     8.4186   9.1007   9.5222   9.8917  11.4819  11.6199  12.1540

          k = 0.0857 0.5444 0.1663 (  2355 PWs)   bands (ev):

   -38.4183 -38.3913 -17.6469 -17.5577 -17.3752 -17.3150 -17.2418 -17.2015
     8.4127   9.0013   9.7863  10.0151  11.4932  11.6354  12.1305

          k = 0.0857 0.5444 0.2494 (  2349 PWs)   bands (ev):

   -38.4121 -38.3975 -17.6599 -17.6103 -17.3353 -17.2711 -17.2588 -17.2011
     8.4770   8.8187  10.0584  10.2612  11.3680  11.5480  12.3516

          k = 0.0857 0.5444-0.3325 (  2360 PWs)   bands (ev):

   -38.4048 -38.4048 -17.6471 -17.6471 -17.2994 -17.2994 -17.2215 -17.2215
     8.6220   8.6220  10.2916  10.2916  11.3769  11.3769  12.7535

          k = 0.1714 0.2969-0.0000 (  2379 PWs)   bands (ev):

   -38.4628 -38.3851 -17.5864 -17.4172 -17.4081 -17.2784 -17.1904 -17.1646
     6.6917   9.5089   9.9125  10.2660  11.5774  11.7294  12.1044

          k = 0.1714 0.2969 0.0831 (  2365 PWs)   bands (ev):

   -38.4599 -38.3881 -17.5890 -17.4139 -17.3964 -17.2896 -17.1956 -17.1606
     6.7794   9.4651   9.8395  10.3064  11.5436  11.7843  12.0253

          k = 0.1714 0.2969 0.1663 (  2368 PWs)   bands (ev):

   -38.4515 -38.3965 -17.5870 -17.4394 -17.3473 -17.3009 -17.2099 -17.1615
     7.0360   9.1097   9.9229  10.4186  11.4182  11.7685  11.9860

          k = 0.1714 0.2969 0.2494 (  2355 PWs)   bands (ev):

   -38.4389 -38.4092 -17.5688 -17.4849 -17.2940 -17.2930 -17.2260 -17.1798
     7.4422   8.5488  10.1789  10.5417  11.2376  11.5050  12.1892

          k = 0.1714 0.2969-0.3325 (  2362 PWs)   bands (ev):

   -38.4241 -38.4241 -17.5328 -17.5328 -17.2777 -17.2777 -17.2131 -17.2131
     7.9641   7.9641  10.4582  10.4582  11.2560  11.2560  12.4404

          k = 0.1714 0.3959-0.0000 (  2353 PWs)   bands (ev):

   -38.4421 -38.3837 -17.5225 -17.4961 -17.4490 -17.3246 -17.2191 -17.2061
     7.5383   9.6373   9.6512   9.9582  11.3672  11.8556  11.8689

          k = 0.1714 0.3959 0.0831 (  2364 PWs)   bands (ev):

   -38.4399 -38.3859 -17.5592 -17.4850 -17.4178 -17.3357 -17.2266 -17.1930
     7.6039   9.5439   9.7024  10.0178  11.3491  11.7745  11.8868

          k = 0.1714 0.3959 0.1663 (  2364 PWs)   bands (ev):

   -38.4336 -38.3923 -17.5906 -17.5076 -17.3641 -17.3342 -17.2416 -17.1787
     7.7953   9.2725   9.8777  10.1566  11.2715  11.5750  11.9722

          k = 0.1714 0.3959 0.2494 (  2364 PWs)   bands (ev):

   -38.4241 -38.4018 -17.5983 -17.5470 -17.3407 -17.3025 -17.2445 -17.1831
     8.0961   8.8916  10.1297  10.3185  11.1351  11.2989  12.1927

          k = 0.1714 0.3959-0.3325 (  2372 PWs)   bands (ev):

   -38.4130 -38.4130 -17.5819 -17.5819 -17.3164 -17.3164 -17.2099 -17.2099
     8.4769   8.4769  10.3430  10.3430  11.0939  11.0939  12.5290

          k = 0.1714 0.4949-0.0000 (  2350 PWs)   bands (ev):

   -38.4241 -38.3856 -17.5563 -17.4643 -17.4603 -17.3718 -17.2520 -17.2381
     8.3685   9.4438   9.4815   9.8275  11.2970  11.6201  12.1521

          k = 0.1714 0.4949 0.0831 (  2353 PWs)   bands (ev):

   -38.4226 -38.3870 -17.5781 -17.4990 -17.4207 -17.3649 -17.2556 -17.2239
     8.3953   9.3817   9.5608   9.9072  11.2903  11.5426  12.1476

          k = 0.1714 0.4949 0.1663 (  2349 PWs)   bands (ev):

   -38.4184 -38.3912 -17.6112 -17.5409 -17.4020 -17.3191 -17.2686 -17.1986
     8.4797   9.2422   9.7604  10.1079  11.2263  11.3472  12.1865

          k = 0.1714 0.4949 0.2494 (  2353 PWs)   bands (ev):

   -38.4122 -38.3974 -17.6269 -17.5862 -17.3776 -17.3147 -17.2440 -17.1896
     8.6255   9.0436  10.0557  10.3380  11.0505  11.1124  12.3549

          k = 0.1714 0.4949-0.3325 (  2352 PWs)   bands (ev):

   -38.4048 -38.4048 -17.6180 -17.6180 -17.3456 -17.3456 -17.2056 -17.2056
     8.8235   8.8235  10.3474  10.3474  10.9526  10.9526  12.6642

          k = 0.1714 0.5939-0.0000 (  2360 PWs)   bands (ev):

   -38.4158 -38.3879 -17.5779 -17.4658 -17.4284 -17.3938 -17.2779 -17.2449
     8.8405   9.2576   9.4229   9.7440  11.3211  11.4808  12.3015

          k = 0.1714 0.5939 0.0831 (  2358 PWs)   bands (ev):

   -38.4148 -38.3890 -17.5948 -17.4930 -17.4328 -17.3565 -17.2753 -17.2355
     8.8027   9.2605   9.5630   9.7619  11.3020  11.4414  12.2884

          k = 0.1714 0.5939 0.1663 (  2348 PWs)   bands (ev):

   -38.4117 -38.3919 -17.6239 -17.5475 -17.4195 -17.2949 -17.2911 -17.2089
     8.7732   9.2137   9.8757   9.8842  11.1932  11.3238  12.3163

          k = 0.1714 0.5939 0.2494 (  2341 PWs)   bands (ev):

   -38.4071 -38.3965 -17.6395 -17.5985 -17.3915 -17.3209 -17.2396 -17.1938
     8.8165   9.0837  10.1247  10.2592  10.9584  11.1191  12.4797

          k = 0.1714 0.5939-0.3325 (  2348 PWs)   bands (ev):

   -38.4018 -38.4018 -17.6312 -17.6312 -17.3565 -17.3565 -17.2038 -17.2038
     8.9313   8.9313  10.3981  10.3981  10.8672  10.8672  12.7784

          k = 0.2571 0.4454-0.0000 (  2363 PWs)   bands (ev):

   -38.4242 -38.3855 -17.5264 -17.4751 -17.4608 -17.3642 -17.2661 -17.2515
     8.3471   9.5334   9.6752   9.7235  11.2138  11.6343  12.1109

          k = 0.2571 0.4454 0.0831 (  2348 PWs)   bands (ev):

   -38.4227 -38.3869 -17.5336 -17.5292 -17.3945 -17.3855 -17.2711 -17.2293
     8.3928   9.4724   9.7199   9.8259  11.2078  11.5094  12.1089

          k = 0.2571 0.4454 0.1663 (  2355 PWs)   bands (ev):

   -38.4185 -38.3911 -17.5806 -17.5457 -17.4057 -17.3365 -17.2751 -17.1983
     8.5236   9.3539   9.8544  10.0359  11.1566  11.2214  12.1310

          k = 0.2571 0.4454 0.2494 (  2345 PWs)   bands (ev):

   -38.4122 -38.3974 -17.6033 -17.5763 -17.3961 -17.3400 -17.2383 -17.1863
     8.7212   9.1791  10.0707  10.2718  10.9106  11.0115  12.2647

          k = 0.2571 0.4454-0.3325 (  2346 PWs)   bands (ev):

   -38.4048 -38.4048 -17.6002 -17.6002 -17.3690 -17.3690 -17.2005 -17.2005
     8.9542   8.9542  10.3045  10.3045  10.8253  10.8253  12.5653

          k = 0.2571 0.5444-0.0000 (  2361 PWs)   bands (ev):

   -38.4101 -38.3902 -17.5497 -17.4572 -17.4125 -17.4051 -17.2977 -17.2950
     9.0173   9.4790   9.5093   9.6415  11.2056  11.4083  12.3669

          k = 0.2571 0.5444 0.0831 (  2364 PWs)   bands (ev):

   -38.4093 -38.3910 -17.5553 -17.4962 -17.4433 -17.3524 -17.3055 -17.2637
     9.0367   9.4610   9.5671   9.7301  11.1722  11.2991  12.3568

          k = 0.2571 0.5444 0.1663 (  2355 PWs)   bands (ev):

   -38.4072 -38.3931 -17.5806 -17.5404 -17.4604 -17.3368 -17.2760 -17.2201
     9.0957   9.4336   9.7303   9.9488  11.0233  11.0600  12.3612

          k = 0.2571 0.5444 0.2494 (  2348 PWs)   bands (ev):

   -38.4039 -38.3963 -17.6040 -17.5814 -17.4403 -17.3678 -17.2245 -17.1941
     9.1885   9.3811   9.9911  10.2412  10.6791  10.8473  12.4554

          k = 0.2571 0.5444-0.3325 (  2338 PWs)   bands (ev):

   -38.4001 -38.4001 -17.6051 -17.6051 -17.4053 -17.4053 -17.1952 -17.1952
     9.2939   9.2939  10.3180  10.3180  10.5615  10.5615  12.6993

          k = 0.3429 0.5939-0.0000 (  2358 PWs)   bands (ev):

   -38.3984 -38.3984 -17.5413 -17.4388 -17.4388 -17.3497 -17.3497 -17.3261
     9.4357   9.4357   9.4877   9.5358  11.2455  11.2455  12.4779

          k = 0.3429 0.5939 0.0831 (  2367 PWs)   bands (ev):

   -38.3984 -38.3984 -17.5333 -17.4810 -17.4810 -17.3345 -17.3070 -17.3070
     9.4868   9.4868   9.5193   9.5569  11.1615  11.1615  12.4654

          k = 0.3429 0.5939 0.1663 (  2349 PWs)   bands (ev):

   -38.3984 -38.3984 -17.5383 -17.5383 -17.5103 -17.3582 -17.2480 -17.2480
     9.5970   9.6118   9.6312   9.6312  10.9463  10.9463  12.4563

          k = 0.3429 0.5939 0.2494 (  2334 PWs)   bands (ev):

   -38.3984 -38.3984 -17.5782 -17.5782 -17.4758 -17.3934 -17.2065 -17.2065
     9.6742   9.6752   9.8328   9.8328  10.6824  10.6824  12.5216

          k = 0.3429 0.5939-0.3325 (  2340 PWs)   bands (ev):

   -38.3984 -38.3984 -17.5924 -17.5924 -17.4348 -17.4348 -17.1917 -17.1917
     9.7046   9.7046   9.9626   9.9626  10.5288  10.5288  12.7349

     the Fermi energy is    10.1558 ev

!    total energy              =    -306.87654495 Ry
     total all-electron energy =     -3050.017316 Ry
     estimated scf accuracy    <          3.6E-11 Ry
     smearing contrib. (-TS)   =      -0.00079608 Ry
     internal energy E=F+TS    =    -306.87574887 Ry

     The total energy is F=E-TS. E is the sum of the following terms:
     one-electron contribution =     -67.02152258 Ry
     hartree contribution      =      39.94215882 Ry
     xc contribution           =     -34.68394433 Ry
     ewald contribution        =    -131.35467556 Ry
     one-center paw contrib.   =    -113.75776522 Ry

     convergence has been achieved in  12 iterations

     Forces acting on atoms (cartesian axes, Ry/au):

     atom    1 type  1   force =     0.00000000   -0.00000000    0.00000000
     atom    2 type  1   force =    -0.00000000    0.00000000   -0.00000000
     The non-local contrib.  to forces
     atom    1 type  1   force =     0.00000000   -0.00000000    0.00000000
     atom    2 type  1   force =    -0.00000000    0.00000000   -0.00000000
     The ionic contribution  to forces
     atom    1 type  1   force =     0.00000000   -0.00000000   -0.00000000
     atom    2 type  1   force =    -0.00000000    0.00000000    0.00000000
     The local contribution  to forces
     atom    1 type  1   force =     0.00000000    0.00000000    0.00000000
     atom    2 type  1   force =    -0.00000000    0.00000000    0.00000000
     The core correction contribution to forces
     atom    1 type  1   force =     0.00000000    0.00000000    0.00000000
     atom    2 type  1   force =     0.00000000   -0.00000000   -0.00000000
     The Hubbard contrib.    to forces
     atom    1 type  1   force =     0.00000000    0.00000000    0.00000000
     atom    2 type  1   force =     0.00000000    0.00000000    0.00000000
     The SCF correction term to forces
     atom    1 type  1   force =    -0.00000000    0.00000000    0.00000000
     atom    2 type  1   force =     0.00000000    0.00000000    0.00000000

     Total force =     0.000000     Total SCF correction =     0.000000


     Computing stress (Cartesian axis) and pressure

          total   stress  (Ry/bohr**3)                   (kbar)     P=       -1.99
  -0.00001176  -0.00000000  -0.00000000           -1.73       -0.00       -0.00
  -0.00000000  -0.00001176   0.00000000           -0.00       -1.73        0.00
   0.00000000  -0.00000000  -0.00001709            0.00       -0.00       -2.51


     Writing all to output data dir sc_vcrelax.out/scandium.save/

     init_run     :     13.36s CPU     13.46s WALL (       2 calls)
     electrons    :   3081.88s CPU   3118.08s WALL (      10 calls)
     update_pot   :     14.06s CPU     14.08s WALL (       8 calls)
     forces       :     19.06s CPU     19.23s WALL (      10 calls)
     stress       :     89.20s CPU     90.08s WALL (      10 calls)

     Called by init_run:
     wfcinit      :      8.54s CPU      8.61s WALL (       2 calls)
     potinit      :      0.93s CPU      0.93s WALL (       2 calls)
     hinit0       :      3.74s CPU      3.74s WALL (       2 calls)

     Called by electrons:
     c_bands      :   2735.21s CPU   2763.78s WALL (     216 calls)
     sum_band     :    314.38s CPU    318.27s WALL (     216 calls)
     v_of_rho     :      1.63s CPU      1.64s WALL (     224 calls)
     newd         :     11.65s CPU     14.50s WALL (     224 calls)
     PAW_pot      :     19.84s CPU     19.85s WALL (     232 calls)
     mix_rho      :      1.04s CPU      1.09s WALL (     216 calls)

     Called by c_bands:
     init_us_2    :     44.84s CPU     47.55s WALL (   43890 calls)
     init_us_2:cp :     44.69s CPU     47.46s WALL (   43890 calls)
     cegterg      :   2640.22s CPU   2648.09s WALL (   20655 calls)

     Called by *egterg:
     cdiaghg      :     30.91s CPU     31.13s WALL (  131262 calls)
     h_psi        :   1927.30s CPU   1933.61s WALL (  132537 calls)
     s_psi        :    151.82s CPU    152.30s WALL (  132537 calls)
     g_psi        :     14.24s CPU     14.31s WALL (  111692 calls)

     Called by h_psi:
     h_psi:calbec :    144.24s CPU    144.63s WALL (  132537 calls)
     vloc_psi     :   1627.93s CPU   1633.56s WALL (  132537 calls)
     add_vuspsi   :    150.15s CPU    150.51s WALL (  132537 calls)

     General routines
     calbec       :    196.05s CPU    196.57s WALL (  158567 calls)
     fft          :      1.18s CPU      1.18s WALL (     986 calls)
     ffts         :      0.27s CPU      0.27s WALL (     216 calls)
     fftw         :   1661.92s CPU   1667.71s WALL ( 2468054 calls)

     Parallel routines

     PWSCF        :  53m41.45s CPU  54m21.29s WALL


   This run was terminated on:  16:22:57  16Jun2023            

=------------------------------------------------------------------------------=
   JOB DONE.
=------------------------------------------------------------------------------=
