
     Program PWSCF v.7.2 starts on 26Jul2023 at 14:32: 9 

     This program is part of the open-source Quantum ESPRESSO suite
     for quantum simulation of materials; please cite
         "P. Giannozzi et al., J. Phys.:Condens. Matter 21 395502 (2009);
         "P. Giannozzi et al., J. Phys.:Condens. Matter 29 465901 (2017);
         "P. Giannozzi et al., J. Chem. Phys. 152 154105 (2020);
          URL http://www.quantum-espresso.org", 
     in publications or presentations arising from this work. More details at
     http://www.quantum-espresso.org/quote

     Parallel version (MPI), running on    20 processors

     MPI processes distributed on     1 nodes
     316703 MiB available memory on the printing compute node when the environment starts

     Waiting for input...
     Reading input from standard input

     Current dimensions of program PWSCF are:
     Max number of different atomic species (ntypx) = 10
     Max number of k-points (npk) = 120000
     Max angular momentum in pseudopotentials (lmaxx) =  4
     file Sc.pz-spn-kjpaw_psl.1.0.0.UPF: wavefunction(s)  3S 3P 3D renormalized

     R & G space division:  proc/nbgrp/npool/nimage =      20
     Subspace diagonalization in iterative solution of the eigenvalue problem:
     a serial algorithm will be used


     Parallelization info
     --------------------
     sticks:   dense  smooth     PW     G-vecs:    dense   smooth      PW
     Min          42      21      6                 1626      575      98
     Max          43      22      7                 1637      582     105
     Sum         859     433    139                32631    11561    1997

     Using Slab Decomposition



     bravais-lattice index     =            4
     lattice parameter (alat)  =       6.2531  a.u.
     unit-cell volume          =     337.5249 (a.u.)^3
     number of atoms/cell      =            2
     number of atomic types    =            1
     number of electrons       =        22.00
     number of Kohn-Sham states=           15
     kinetic-energy cutoff     =      40.0000  Ry
     charge density cutoff     =     320.0000  Ry
     scf convergence threshold =      1.0E-08
     mixing beta               =       0.7000
     number of iterations used =            8  plain     mixing
     Exchange-correlation= SLA  PZ   NOGX NOGC
                           (   1   1   0   0   0   0   0)

     celldm(1)=   6.253104  celldm(2)=   0.000000  celldm(3)=   1.594000
     celldm(4)=   0.000000  celldm(5)=   0.000000  celldm(6)=   0.000000

     crystal axes: (cart. coord. in units of alat)
               a(1) = (   1.000000   0.000000   0.000000 )  
               a(2) = (  -0.500000   0.866025   0.000000 )  
               a(3) = (   0.000000   0.000000   1.594000 )  

     reciprocal axes: (cart. coord. in units 2 pi/alat)
               b(1) = (  1.000000  0.577350 -0.000000 )  
               b(2) = (  0.000000  1.154701  0.000000 )  
               b(3) = (  0.000000 -0.000000  0.627353 )  


     PseudoPot. # 1 for Sc read from file:
     ../../../Sc.pz-spn-kjpaw_psl.1.0.0.UPF
     MD5 check sum: 1f9095df0bb42a6568b4e9f256ff075f
     Pseudo is Projector augmented-wave + core cor, Zval = 11.0
     Generated using 'atomic' code by A. Dal Corso  v.7.1
     Shape of augmentation charge: PSQ
     Using radial grid of 1173 points,  6 beta functions with: 
                l(1) =   0
                l(2) =   0
                l(3) =   1
                l(4) =   1
                l(5) =   2
                l(6) =   2
     Q(r) pseudized with 0 coefficients 


     atomic species   valence    mass     pseudopotential
        Sc            11.00    44.59600     Sc( 1.00)

     24 Sym. Ops., with inversion, found (12 have fractional translation)



   Cartesian axes

     site n.     atom                  positions (alat units)
         1           Sc  tau(   1) = (   0.0000000   0.0000000   0.0000000  )
         2           Sc  tau(   2) = (   0.5000000   0.2886751   0.7970000  )

     number of k points=    95  Marzari-Vanderbilt smearing, width (Ry)=  0.0200
                       cart. coord. in units 2pi/alat
        k(    1) = (   0.0000000   0.0000000   0.0000000), wk =   0.0017361
        k(    2) = (   0.0000000   0.0000000   0.0784191), wk =   0.0034722
        k(    3) = (   0.0000000   0.0000000   0.1568381), wk =   0.0034722
        k(    4) = (   0.0000000   0.0000000   0.2352572), wk =   0.0034722
        k(    5) = (   0.0000000   0.0000000  -0.3136763), wk =   0.0017361
        k(    6) = (   0.0000000   0.0962250   0.0000000), wk =   0.0104167
        k(    7) = (   0.0000000   0.0962250   0.0784191), wk =   0.0208333
        k(    8) = (   0.0000000   0.0962250   0.1568381), wk =   0.0208333
        k(    9) = (   0.0000000   0.0962250   0.2352572), wk =   0.0208333
        k(   10) = (   0.0000000   0.0962250  -0.3136763), wk =   0.0104167
        k(   11) = (   0.0000000   0.1924501   0.0000000), wk =   0.0104167
        k(   12) = (   0.0000000   0.1924501   0.0784191), wk =   0.0208333
        k(   13) = (   0.0000000   0.1924501   0.1568381), wk =   0.0208333
        k(   14) = (   0.0000000   0.1924501   0.2352572), wk =   0.0208333
        k(   15) = (   0.0000000   0.1924501  -0.3136763), wk =   0.0104167
        k(   16) = (   0.0000000   0.2886751   0.0000000), wk =   0.0104167
        k(   17) = (   0.0000000   0.2886751   0.0784191), wk =   0.0208333
        k(   18) = (   0.0000000   0.2886751   0.1568381), wk =   0.0208333
        k(   19) = (   0.0000000   0.2886751   0.2352572), wk =   0.0208333
        k(   20) = (   0.0000000   0.2886751  -0.3136763), wk =   0.0104167
        k(   21) = (   0.0000000   0.3849002   0.0000000), wk =   0.0104167
        k(   22) = (   0.0000000   0.3849002   0.0784191), wk =   0.0208333
        k(   23) = (   0.0000000   0.3849002   0.1568381), wk =   0.0208333
        k(   24) = (   0.0000000   0.3849002   0.2352572), wk =   0.0208333
        k(   25) = (   0.0000000   0.3849002  -0.3136763), wk =   0.0104167
        k(   26) = (   0.0000000   0.4811252   0.0000000), wk =   0.0104167
        k(   27) = (   0.0000000   0.4811252   0.0784191), wk =   0.0208333
        k(   28) = (   0.0000000   0.4811252   0.1568381), wk =   0.0208333
        k(   29) = (   0.0000000   0.4811252   0.2352572), wk =   0.0208333
        k(   30) = (   0.0000000   0.4811252  -0.3136763), wk =   0.0104167
        k(   31) = (   0.0000000  -0.5773503   0.0000000), wk =   0.0052083
        k(   32) = (   0.0000000  -0.5773503   0.0784191), wk =   0.0104167
        k(   33) = (   0.0000000  -0.5773503   0.1568381), wk =   0.0104167
        k(   34) = (   0.0000000  -0.5773503   0.2352572), wk =   0.0104167
        k(   35) = (   0.0000000  -0.5773503  -0.3136763), wk =   0.0052083
        k(   36) = (   0.0833333   0.1443376   0.0000000), wk =   0.0104167
        k(   37) = (   0.0833333   0.1443376   0.0784191), wk =   0.0208333
        k(   38) = (   0.0833333   0.1443376   0.1568381), wk =   0.0208333
        k(   39) = (   0.0833333   0.1443376   0.2352572), wk =   0.0208333
        k(   40) = (   0.0833333   0.1443376  -0.3136763), wk =   0.0104167
        k(   41) = (   0.0833333   0.2405626   0.0000000), wk =   0.0208333
        k(   42) = (   0.0833333   0.2405626   0.0784191), wk =   0.0416667
        k(   43) = (   0.0833333   0.2405626   0.1568381), wk =   0.0416667
        k(   44) = (   0.0833333   0.2405626   0.2352572), wk =   0.0416667
        k(   45) = (   0.0833333   0.2405626  -0.3136763), wk =   0.0208333
        k(   46) = (   0.0833333   0.3367877   0.0000000), wk =   0.0208333
        k(   47) = (   0.0833333   0.3367877   0.0784191), wk =   0.0416667
        k(   48) = (   0.0833333   0.3367877   0.1568381), wk =   0.0416667
        k(   49) = (   0.0833333   0.3367877   0.2352572), wk =   0.0416667
        k(   50) = (   0.0833333   0.3367877  -0.3136763), wk =   0.0208333
        k(   51) = (   0.0833333   0.4330127   0.0000000), wk =   0.0208333
        k(   52) = (   0.0833333   0.4330127   0.0784191), wk =   0.0416667
        k(   53) = (   0.0833333   0.4330127   0.1568381), wk =   0.0416667
        k(   54) = (   0.0833333   0.4330127   0.2352572), wk =   0.0416667
        k(   55) = (   0.0833333   0.4330127  -0.3136763), wk =   0.0208333
        k(   56) = (   0.0833333   0.5292377   0.0000000), wk =   0.0208333
        k(   57) = (   0.0833333   0.5292377   0.0784191), wk =   0.0416667
        k(   58) = (   0.0833333   0.5292377   0.1568381), wk =   0.0416667
        k(   59) = (   0.0833333   0.5292377   0.2352572), wk =   0.0416667
        k(   60) = (   0.0833333   0.5292377  -0.3136763), wk =   0.0208333
        k(   61) = (   0.1666667   0.2886751   0.0000000), wk =   0.0104167
        k(   62) = (   0.1666667   0.2886751   0.0784191), wk =   0.0208333
        k(   63) = (   0.1666667   0.2886751   0.1568381), wk =   0.0208333
        k(   64) = (   0.1666667   0.2886751   0.2352572), wk =   0.0208333
        k(   65) = (   0.1666667   0.2886751  -0.3136763), wk =   0.0104167
        k(   66) = (   0.1666667   0.3849002   0.0000000), wk =   0.0208333
        k(   67) = (   0.1666667   0.3849002   0.0784191), wk =   0.0416667
        k(   68) = (   0.1666667   0.3849002   0.1568381), wk =   0.0416667
        k(   69) = (   0.1666667   0.3849002   0.2352572), wk =   0.0416667
        k(   70) = (   0.1666667   0.3849002  -0.3136763), wk =   0.0208333
        k(   71) = (   0.1666667   0.4811252   0.0000000), wk =   0.0208333
        k(   72) = (   0.1666667   0.4811252   0.0784191), wk =   0.0416667
        k(   73) = (   0.1666667   0.4811252   0.1568381), wk =   0.0416667
        k(   74) = (   0.1666667   0.4811252   0.2352572), wk =   0.0416667
        k(   75) = (   0.1666667   0.4811252  -0.3136763), wk =   0.0208333
        k(   76) = (   0.1666667   0.5773503   0.0000000), wk =   0.0104167
        k(   77) = (   0.1666667   0.5773503   0.0784191), wk =   0.0208333
        k(   78) = (   0.1666667   0.5773503   0.1568381), wk =   0.0208333
        k(   79) = (   0.1666667   0.5773503   0.2352572), wk =   0.0208333
        k(   80) = (   0.1666667   0.5773503  -0.3136763), wk =   0.0104167
        k(   81) = (   0.2500000   0.4330127   0.0000000), wk =   0.0104167
        k(   82) = (   0.2500000   0.4330127   0.0784191), wk =   0.0208333
        k(   83) = (   0.2500000   0.4330127   0.1568381), wk =   0.0208333
        k(   84) = (   0.2500000   0.4330127   0.2352572), wk =   0.0208333
        k(   85) = (   0.2500000   0.4330127  -0.3136763), wk =   0.0104167
        k(   86) = (   0.2500000   0.5292377   0.0000000), wk =   0.0208333
        k(   87) = (   0.2500000   0.5292377   0.0784191), wk =   0.0416667
        k(   88) = (   0.2500000   0.5292377   0.1568381), wk =   0.0416667
        k(   89) = (   0.2500000   0.5292377   0.2352572), wk =   0.0416667
        k(   90) = (   0.2500000   0.5292377  -0.3136763), wk =   0.0208333
        k(   91) = (   0.3333333   0.5773503   0.0000000), wk =   0.0034722
        k(   92) = (   0.3333333   0.5773503   0.0784191), wk =   0.0069444
        k(   93) = (   0.3333333   0.5773503   0.1568381), wk =   0.0069444
        k(   94) = (   0.3333333   0.5773503   0.2352572), wk =   0.0069444
        k(   95) = (   0.3333333   0.5773503  -0.3136763), wk =   0.0034722

     Dense  grid:    32631 G-vectors     FFT dimensions: (  36,  36,  60)

     Smooth grid:    11561 G-vectors     FFT dimensions: (  27,  27,  48)

     Estimated max dynamical RAM per process >       8.69 MB

     Estimated total dynamical RAM >     173.85 MB

     Check: negative core charge=   -0.000015

     Initial potential from superposition of free atoms

     starting charge      21.9956, renormalised to      22.0000
     Starting wfcs are   20 randomized atomic wfcs
     Checking if some PAW data can be deallocated... 

     total cpu time spent up to now is        0.8 secs

     Self-consistent Calculation

     iteration #  1     ecut=    40.00 Ry     beta= 0.70
     Davidson diagonalization with overlap
     ethr =  1.00E-02,  avg # of iterations =  3.2

     Threshold (ethr) on eigenvalues was too large:
     Diagonalizing with lowered threshold

     Davidson diagonalization with overlap
     c_bands:  1 eigenvalues not converged
     ethr =  1.85E-05,  avg # of iterations =  9.4

     total cpu time spent up to now is        3.6 secs

     total energy              =    -306.85533419 Ry
     estimated scf accuracy    <       0.02205818 Ry

     iteration #  2     ecut=    40.00 Ry     beta= 0.70
     Davidson diagonalization with overlap
     ethr =  1.00E-04,  avg # of iterations =  4.3

     total cpu time spent up to now is        5.0 secs

     total energy              =    -306.86079915 Ry
     estimated scf accuracy    <       0.00444768 Ry

     iteration #  3     ecut=    40.00 Ry     beta= 0.70
     Davidson diagonalization with overlap
     ethr =  2.02E-05,  avg # of iterations =  3.6

     total cpu time spent up to now is        6.1 secs

     total energy              =    -306.86198564 Ry
     estimated scf accuracy    <       0.00006437 Ry

     iteration #  4     ecut=    40.00 Ry     beta= 0.70
     Davidson diagonalization with overlap
     ethr =  2.93E-07,  avg # of iterations =  6.8

     total cpu time spent up to now is        7.4 secs

     total energy              =    -306.86204245 Ry
     estimated scf accuracy    <       0.00000286 Ry

     iteration #  5     ecut=    40.00 Ry     beta= 0.70
     Davidson diagonalization with overlap
     ethr =  1.30E-08,  avg # of iterations =  6.8

     total cpu time spent up to now is        8.8 secs

     total energy              =    -306.86204453 Ry
     estimated scf accuracy    <       0.00000018 Ry

     iteration #  6     ecut=    40.00 Ry     beta= 0.70
     Davidson diagonalization with overlap
     ethr =  8.34E-10,  avg # of iterations =  6.5

     total cpu time spent up to now is       10.2 secs

     End of self-consistent calculation

          k = 0.0000 0.0000 0.0000 (  1449 PWs)   bands (ev):

   -40.1583 -40.0943 -19.2373 -18.9041 -18.9041 -18.8456 -18.8456 -18.8284
     3.7526   7.1490   9.3043  10.3674  10.3674  10.4898  10.7833

          k = 0.0000 0.0000 0.0784 (  1436 PWs)   bands (ev):

   -40.1558 -40.0967 -19.2220 -18.9018 -18.9018 -18.8478 -18.8478 -18.8443
     3.8539   6.9944   9.2756  10.3286  10.3286  10.4262  10.7273

          k = 0.0000 0.0000 0.1568 (  1460 PWs)   bands (ev):

   -40.1490 -40.1037 -19.1793 -18.8956 -18.8956 -18.8902 -18.8542 -18.8542
     4.1510   6.5456   9.2852  10.2321  10.2645  10.2645  10.5890

          k = 0.0000 0.0000 0.2353 (  1460 PWs)   bands (ev):

   -40.1387 -40.1142 -19.1141 -18.9576 -18.8861 -18.8861 -18.8636 -18.8636
     4.6230   5.9085   9.4287   9.9709  10.2523  10.2529  10.4354

          k = 0.0000 0.0000-0.3137 (  1448 PWs)   bands (ev):

   -40.1264 -40.1264 -19.0363 -19.0363 -18.8746 -18.8746 -18.8746 -18.8746
     5.2310   5.2310   9.6777   9.6778  10.3161  10.3161  10.3161

          k = 0.0000 0.0962 0.0000 (  1431 PWs)   bands (ev):

   -40.1550 -40.0928 -19.2284 -18.9220 -18.9100 -18.8644 -18.8481 -18.8320
     3.9039   7.2796   9.1807  10.1037  10.4856  10.6567  10.7182

          k = 0.0000 0.0962 0.0784 (  1438 PWs)   bands (ev):

   -40.1526 -40.0952 -19.2143 -18.9194 -18.9077 -18.8725 -18.8505 -18.8417
     4.0037   7.1237   9.1548  10.1005  10.4292  10.5321  10.6554

          k = 0.0000 0.0962 0.1568 (  1451 PWs)   bands (ev):

   -40.1460 -40.1020 -19.1739 -18.9124 -18.9060 -18.9011 -18.8581 -18.8573
     4.2967   6.6730   9.1795  10.1048  10.2556  10.3547  10.5509

          k = 0.0000 0.0962 0.2353 (  1453 PWs)   bands (ev):

   -40.1359 -40.1121 -19.1128 -18.9671 -18.9003 -18.8909 -18.8725 -18.8673
     4.7626   6.0363   9.3431   9.9363  10.1529  10.3402  10.3981

          k = 0.0000 0.0962-0.3137 (  1456 PWs)   bands (ev):

   -40.1241 -40.1241 -19.0401 -19.0401 -18.8867 -18.8867 -18.8792 -18.8792
     5.3638   5.3638   9.6156   9.6158  10.2515  10.2521  10.3975

          k = 0.0000 0.1925 0.0000 (  1439 PWs)   bands (ev):

   -40.1458 -40.0893 -19.2032 -18.9722 -18.9262 -18.9156 -18.8556 -18.8432
     4.3434   7.6282   8.8972   9.6881  10.4282  10.7747  10.8036

          k = 0.0000 0.1925 0.0784 (  1443 PWs)   bands (ev):

   -40.1437 -40.0915 -19.1922 -18.9681 -18.9252 -18.9234 -18.8583 -18.8497
     4.4384   7.4723   8.8822   9.7072  10.4201  10.5689  10.6578

          k = 0.0000 0.1925 0.1568 (  1446 PWs)   bands (ev):

   -40.1376 -40.0976 -19.1608 -18.9615 -18.9484 -18.9157 -18.8661 -18.8660
     4.7175   7.0183   8.9457   9.7645  10.1972  10.4261  10.5652

          k = 0.0000 0.1925 0.2353 (  1443 PWs)   bands (ev):

   -40.1284 -40.1068 -19.1133 -19.0019 -18.9348 -18.9042 -18.8881 -18.8774
     5.1623   6.3901   9.1503   9.7553   9.9767  10.2787  10.5591

          k = 0.0000 0.1925-0.3137 (  1448 PWs)   bands (ev):

   -40.1176 -40.1176 -19.0573 -19.0573 -18.9121 -18.9121 -18.8910 -18.8910
     5.7389   5.7389   9.4496   9.4496  10.0962  10.0962  10.6289

          k = 0.0000 0.2887 0.0000 (  1439 PWs)   bands (ev):

   -40.1327 -40.0849 -19.1653 -19.0415 -18.9834 -18.9469 -18.8667 -18.8621
     5.0256   8.0385   8.5919   9.2617  10.2055  10.4847  10.5961

          k = 0.0000 0.2887 0.0784 (  1443 PWs)   bands (ev):

   -40.1309 -40.0868 -19.1620 -19.0328 -18.9925 -18.9441 -18.8697 -18.8653
     5.1110   7.8858   8.6038   9.2907  10.1816  10.4276  10.6093

          k = 0.0000 0.2887 0.1568 (  1437 PWs)   bands (ev):

   -40.1257 -40.0920 -19.1503 -19.0284 -18.9976 -18.9353 -18.8784 -18.8769
     5.3617   7.4487   8.7234   9.3701  10.0358  10.3145  10.6593

          k = 0.0000 0.2887 0.2353 (  1449 PWs)   bands (ev):

   -40.1180 -40.0998 -19.1283 -19.0609 -18.9660 -18.9224 -18.8990 -18.8917
     5.7614   6.8690   8.9518   9.4070   9.8728  10.1419  10.7557

          k = 0.0000 0.2887-0.3137 (  1450 PWs)   bands (ev):

   -40.1089 -40.1089 -19.0971 -19.0971 -18.9302 -18.9302 -18.9070 -18.9070
     6.2800   6.2800   9.2247   9.2247   9.9449   9.9449  10.9108

          k = 0.0000 0.3849 0.0000 (  1445 PWs)   bands (ev):

   -40.1185 -40.0816 -19.1211 -19.1114 -19.0491 -18.9674 -18.8874 -18.8781
     5.8663   8.2008   8.3430   8.9219  10.2298  10.2343  10.3808

          k = 0.0000 0.3849 0.0784 (  1437 PWs)   bands (ev):

   -40.1171 -40.0830 -19.1475 -19.0803 -19.0535 -18.9640 -18.8873 -18.8815
     5.9336   8.0549   8.4162   8.9638  10.0841  10.3154  10.4326

          k = 0.0000 0.3849 0.1568 (  1443 PWs)   bands (ev):

   -40.1131 -40.0871 -19.1642 -19.0929 -19.0201 -18.9547 -18.8915 -18.8913
     6.1304   7.7184   8.5758   9.0525   9.9396  10.2636  10.5783

          k = 0.0000 0.3849 0.2353 (  1444 PWs)   bands (ev):

   -40.1072 -40.0931 -19.1647 -19.1232 -18.9742 -18.9403 -18.9065 -18.9060
     6.4421   7.2875   8.7999   9.1078   9.8510  10.0944  10.8056

          k = 0.0000 0.3849-0.3137 (  1440 PWs)   bands (ev):

   -40.1001 -40.1001 -19.1497 -19.1497 -18.9345 -18.9345 -18.9232 -18.9232
     6.8418   6.8418   9.0166   9.0166   9.9120   9.9121  11.1029

          k = 0.0000 0.4811 0.0000 (  1441 PWs)   bands (ev):

   -40.1068 -40.0806 -19.1625 -19.0963 -19.0797 -18.9823 -18.9144 -18.8866
     6.7198   8.0337   8.1876   8.6712  10.0652  10.2407  10.4456

          k = 0.0000 0.4811 0.0784 (  1440 PWs)   bands (ev):

   -40.1057 -40.0816 -19.1766 -19.1100 -19.0550 -18.9787 -18.9109 -18.8903
     6.7523   7.9350   8.2879   8.7019  10.0697  10.3034  10.3986

          k = 0.0000 0.4811 0.1568 (  1448 PWs)   bands (ev):

   -40.1030 -40.0844 -19.1954 -19.1385 -19.0110 -18.9685 -18.9073 -18.9010
     6.8498   7.7370   8.4809   8.7990  10.0543  10.2702  10.4829

          k = 0.0000 0.4811 0.2353 (  1449 PWs)   bands (ev):

   -40.0987 -40.0887 -19.2017 -19.1692 -18.9675 -18.9532 -18.9167 -18.9134
     7.0130   7.4879   8.7134   8.9095   9.9959  10.1180  10.7756

          k = 0.0000 0.4811-0.3137 (  1448 PWs)   bands (ev):

   -40.0937 -40.0937 -19.1922 -19.1922 -18.9351 -18.9351 -18.9335 -18.9335
     7.2334   7.2334   8.8946   8.8946   9.9996   9.9996  11.1621

          k = 0.0000-0.5774 0.0000 (  1432 PWs)   bands (ev):

   -40.1018 -40.0808 -19.1811 -19.1130 -19.0603 -18.9876 -18.9285 -18.8901
     7.2374   7.7954   8.1370   8.5560  10.0054  10.1891  10.5426

          k = 0.0000-0.5774 0.0784 (  1440 PWs)   bands (ev):

   -40.1010 -40.0817 -19.1924 -19.1258 -19.0415 -18.9840 -18.9232 -18.8939
     7.2177   7.7706   8.2456   8.5532  10.0570  10.2560  10.4702

          k = 0.0000-0.5774 0.1568 (  1438 PWs)   bands (ev):

   -40.0987 -40.0839 -19.2095 -19.1549 -19.0021 -18.9737 -18.9153 -18.9045
     7.2043   7.6768   8.5081   8.6083  10.1501  10.2893  10.4510

          k = 0.0000-0.5774 0.2353 (  1456 PWs)   bands (ev):

   -40.0954 -40.0874 -19.2166 -19.1860 -18.9629 -18.9580 -18.9203 -18.9169
     7.2478   7.5198   8.7453   8.7742  10.1048  10.1533  10.7585

          k = 0.0000-0.5774-0.3137 (  1456 PWs)   bands (ev):

   -40.0914 -40.0914 -19.2083 -19.2083 -18.9393 -18.9393 -18.9327 -18.9327
     7.3604   7.3604   8.8619   8.8619  10.0713  10.0713  11.1699

          k = 0.0833 0.1443 0.0000 (  1437 PWs)   bands (ev):

   -40.1487 -40.0904 -19.2114 -18.9529 -18.9290 -18.8925 -18.8557 -18.8395
     4.1996   7.5213   8.9814   9.8017  10.5092  10.7147  10.7918

          k = 0.0833 0.1443 0.0784 (  1434 PWs)   bands (ev):

   -40.1465 -40.0926 -19.1992 -18.9490 -18.9283 -18.9004 -18.8582 -18.8462
     4.2963   7.3652   8.9630   9.8187  10.5189  10.5415  10.6091

          k = 0.0833 0.1443 0.1568 (  1447 PWs)   bands (ev):

   -40.1403 -40.0990 -19.1645 -18.9423 -18.9386 -18.9105 -18.8655 -18.8622
     4.5803   6.9109   9.0144   9.8674  10.2225  10.4552  10.5156

          k = 0.0833 0.1443 0.2353 (  1449 PWs)   bands (ev):

   -40.1308 -40.1085 -19.1122 -18.9894 -18.9230 -18.9037 -18.8808 -18.8763
     5.0327   6.2782   9.2073   9.8319  10.0102  10.3058  10.5019

          k = 0.0833 0.1443-0.3137 (  1454 PWs)   bands (ev):

   -40.1197 -40.1197 -19.0504 -19.0504 -18.9053 -18.9053 -18.8875 -18.8875
     5.6184   5.6184   9.5032   9.5033  10.1369  10.1372  10.5569

          k = 0.0833 0.2406 0.0000 (  1436 PWs)   bands (ev):

   -40.1376 -40.0864 -19.1797 -19.0076 -18.9740 -18.9267 -18.8686 -18.8545
     4.7625   7.9194   8.7056   9.3894  10.2773  10.4854  10.7846

          k = 0.0833 0.2406 0.0784 (  1441 PWs)   bands (ev):

   -40.1356 -40.0884 -19.1726 -19.0017 -18.9780 -18.9299 -18.8717 -18.8580
     4.8522   7.7648   8.7034   9.4168  10.2865  10.4062  10.7054

          k = 0.0833 0.2406 0.1568 (  1446 PWs)   bands (ev):

   -40.1301 -40.0940 -19.1517 -19.0025 -18.9788 -18.9306 -18.8805 -18.8691
     5.1158   7.3122   8.7995   9.4919  10.1103  10.3193  10.6548

          k = 0.0833 0.2406 0.2353 (  1450 PWs)   bands (ev):

   -40.1219 -40.1023 -19.1190 -19.0368 -18.9540 -18.9240 -18.8937 -18.8868
     5.5362   6.7032   9.0246   9.5363   9.8916  10.1592  10.7058

          k = 0.0833 0.2406-0.3137 (  1450 PWs)   bands (ev):

   -40.1121 -40.1121 -19.0787 -19.0787 -18.9278 -18.9278 -18.9009 -18.9009
     6.0824   6.0824   9.3179   9.3180   9.9640   9.9641  10.8115

          k = 0.0833 0.3368 0.0000 (  1445 PWs)   bands (ev):

   -40.1239 -40.0827 -19.1383 -19.0760 -19.0287 -18.9582 -18.8824 -18.8770
     5.5312   8.2392   8.4520   9.0078  10.1700  10.2237  10.5359

          k = 0.0833 0.3368 0.0784 (  1446 PWs)   bands (ev):

   -40.1223 -40.0843 -19.1454 -19.0622 -19.0322 -18.9581 -18.8872 -18.8759
     5.6078   8.0875   8.4952   9.0460  10.0812  10.2895  10.5198

          k = 0.0833 0.3368 0.1568 (  1445 PWs)   bands (ev):

   -40.1179 -40.0888 -19.1509 -19.0676 -19.0119 -18.9534 -18.8978 -18.8797
     5.8327   7.6880   8.6447   9.1366   9.9408  10.2376  10.5904

          k = 0.0833 0.3368 0.2353 (  1441 PWs)   bands (ev):

   -40.1112 -40.0954 -19.1441 -19.0962 -18.9737 -18.9425 -18.9117 -18.8932
     6.1902   7.1745   8.8721   9.2102   9.8054  10.0459  10.7821

          k = 0.0833 0.3368-0.3137 (  1436 PWs)   bands (ev):

   -40.1033 -40.1033 -19.1244 -19.1244 -18.9437 -18.9437 -18.9124 -18.9124
     6.6523   6.6523   9.1097   9.1097   9.8482   9.8483  11.0216

          k = 0.0833 0.4330 0.0000 (  1446 PWs)   bands (ev):

   -40.1107 -40.0807 -19.1363 -19.0944 -19.0766 -18.9827 -18.9043 -18.8944
     6.3966   8.2120   8.2696   8.7421  10.0561  10.3005  10.3404

          k = 0.0833 0.4330 0.0784 (  1449 PWs)   bands (ev):

   -40.1096 -40.0819 -19.1554 -19.0946 -19.0591 -18.9802 -18.9057 -18.8937
     6.4491   8.0778   8.3646   8.7931  10.0025  10.2801  10.3868

          k = 0.0833 0.4330 0.1568 (  1445 PWs)   bands (ev):

   -40.1063 -40.0851 -19.1753 -19.1187 -19.0173 -18.9699 -18.9148 -18.8923
     6.6029   7.8224   8.5338   8.9061   9.8997  10.1732  10.5437

          k = 0.0833 0.4330 0.2353 (  1442 PWs)   bands (ev):

   -40.1015 -40.0900 -19.1808 -19.1477 -18.9809 -18.9516 -18.9278 -18.8992
     6.8457   7.4973   8.7590   9.0012   9.8120   9.9850  10.7968

          k = 0.0833 0.4330-0.3137 (  1434 PWs)   bands (ev):

   -40.0957 -40.0957 -19.1706 -19.1706 -18.9561 -18.9561 -18.9171 -18.9171
     7.1556   7.1556   8.9585   8.9585   9.8303   9.8303  11.1238

          k = 0.0833 0.5292 0.0000 (  1438 PWs)   bands (ev):

   -40.1018 -40.0808 -19.1710 -19.1042 -19.0607 -18.9961 -18.9281 -18.9014
     7.1584   7.9586   8.1767   8.5546   9.9894  10.1439  10.5396

          k = 0.0833 0.5292 0.0784 (  1442 PWs)   bands (ev):

   -40.1010 -40.0816 -19.1822 -19.1174 -19.0435 -18.9907 -18.9253 -18.9025
     7.1637   7.9060   8.2790   8.5767  10.0029  10.1514  10.5271

          k = 0.0833 0.5292 0.1568 (  1439 PWs)   bands (ev):

   -40.0987 -40.0839 -19.1994 -19.1465 -19.0125 -18.9725 -18.9283 -18.9018
     7.1969   7.7797   8.4983   8.6842  10.0019  10.0875  10.6021

          k = 0.0833 0.5292 0.2353 (  1444 PWs)   bands (ev):

   -40.0954 -40.0873 -19.2065 -19.1769 -18.9863 -18.9478 -18.9393 -18.9039
     7.2820   7.6030   8.7380   8.8574   9.8970   9.9639  10.8470

          k = 0.0833 0.5292-0.3137 (  1450 PWs)   bands (ev):

   -40.0914 -40.0914 -19.1987 -19.1987 -18.9640 -18.9640 -18.9177 -18.9177
     7.4235   7.4235   8.9039   8.9039   9.8572   9.8572  11.1979

          k = 0.1667 0.2887 0.0000 (  1434 PWs)   bands (ev):

   -40.1258 -40.0831 -19.1443 -19.0458 -19.0382 -18.9468 -18.8919 -18.8735
     5.4173   8.2759   8.5068   9.0156  10.1640  10.1789  10.6290

          k = 0.1667 0.2887 0.0784 (  1445 PWs)   bands (ev):

   -40.1242 -40.0848 -19.1463 -19.0424 -19.0327 -18.9520 -18.8951 -18.8728
     5.4971   8.1186   8.5376   9.0478  10.1309  10.2107  10.5709

          k = 0.1667 0.2887 0.1568 (  1444 PWs)   bands (ev):

   -40.1196 -40.0894 -19.1454 -19.0577 -19.0015 -18.9576 -18.9033 -18.8762
     5.7316   7.6888   8.6804   9.1412   9.9837  10.2009  10.5613

          k = 0.1667 0.2887 0.2353 (  1444 PWs)   bands (ev):

   -40.1126 -40.0963 -19.1343 -19.0841 -18.9671 -18.9547 -18.9126 -18.8893
     6.1051   7.1412   8.9093   9.2396   9.7993  10.0038  10.7407

          k = 0.1667 0.2887-0.3137 (  1448 PWs)   bands (ev):

   -40.1045 -40.1045 -19.1125 -19.1125 -18.9500 -18.9500 -18.9088 -18.9088
     6.5898   6.5898   9.1552   9.1552   9.8037   9.8037  10.9614

          k = 0.1667 0.3849 0.0000 (  1449 PWs)   bands (ev):

   -40.1129 -40.0809 -19.1023 -19.1018 -19.0729 -18.9794 -18.9145 -18.8990
     6.2299   8.3554   8.4317   8.7119   9.9667  10.2475  10.3794

          k = 0.1667 0.3849 0.0784 (  1440 PWs)   bands (ev):

   -40.1117 -40.0821 -19.1320 -19.0926 -19.0488 -18.9840 -18.9187 -18.8933
     6.2934   8.2361   8.4919   8.7585   9.9318  10.2715  10.3308

          k = 0.1667 0.3849 0.1568 (  1441 PWs)   bands (ev):

   -40.1082 -40.0856 -19.1525 -19.1066 -19.0104 -18.9850 -18.9273 -18.8877
     6.4790   7.9458   8.6373   8.8675   9.8362  10.0916  10.4576

          k = 0.1667 0.3849 0.2353 (  1439 PWs)   bands (ev):

   -40.1030 -40.0908 -19.1580 -19.1289 -18.9896 -18.9709 -18.9292 -18.8925
     6.7720   7.5570   8.8397   8.9932   9.7078   9.8481  10.6945

          k = 0.1667 0.3849-0.3137 (  1440 PWs)   bands (ev):

   -40.0969 -40.0969 -19.1488 -19.1488 -18.9758 -18.9758 -18.9099 -18.9099
     7.1454   7.1454   9.0081   9.0081   9.6745   9.6745  11.0056

          k = 0.1667 0.4811 0.0000 (  1441 PWs)   bands (ev):

   -40.1019 -40.0808 -19.1447 -19.0891 -19.0614 -19.0109 -18.9296 -18.9275
     7.0585   8.2575   8.2699   8.5440   9.8838  10.1276  10.5076

          k = 0.1667 0.4811 0.0784 (  1439 PWs)   bands (ev):

   -40.1011 -40.0816 -19.1551 -19.1055 -19.0436 -19.0055 -18.9386 -18.9145
     7.0942   8.1573   8.3605   8.6160   9.8558  10.0630  10.5278

          k = 0.1667 0.4811 0.1568 (  1442 PWs)   bands (ev):

   -40.0988 -40.0839 -19.1729 -19.1311 -19.0297 -18.9807 -18.9473 -18.9009
     7.1987   7.9985   8.5224   8.7762   9.7635   9.8894  10.6162

          k = 0.1667 0.4811 0.2353 (  1441 PWs)   bands (ev):

   -40.0954 -40.0873 -19.1817 -19.1574 -19.0149 -18.9783 -18.9321 -18.8974
     7.3638   7.7952   8.7513   8.9444   9.6334   9.6549  10.8064

          k = 0.1667 0.4811-0.3137 (  1444 PWs)   bands (ev):

   -40.0913 -40.0913 -19.1762 -19.1762 -18.9963 -18.9963 -18.9085 -18.9085
     7.5720   7.5720   8.9591   8.9591   9.5387   9.5387  11.0935

          k = 0.1667 0.5774 0.0000 (  1432 PWs)   bands (ev):

   -40.0969 -40.0816 -19.1601 -19.0933 -19.0407 -19.0243 -18.9436 -18.9349
     7.5650   8.0384   8.2427   8.4486   9.9253   9.9649  10.6381

          k = 0.1667 0.5774 0.0784 (  1438 PWs)   bands (ev):

   -40.0964 -40.0822 -19.1684 -19.1071 -19.0461 -19.0009 -18.9506 -18.9240
     7.5573   8.0251   8.3342   8.4810   9.8881   9.9258  10.6499

          k = 0.1667 0.5774 0.1568 (  1439 PWs)   bands (ev):

   -40.0947 -40.0839 -19.1837 -19.1370 -19.0403 -18.9640 -18.9637 -18.9078
     7.5652   7.9631   8.5639   8.6035   9.7790   9.7947  10.7270

          k = 0.1667 0.5774 0.2353 (  1449 PWs)   bands (ev):

   -40.0923 -40.0864 -19.1919 -19.1667 -19.0246 -18.9826 -18.9300 -18.9004
     7.6200   7.8496   8.8100   8.8450   9.5694   9.6045  10.9086

          k = 0.1667 0.5774-0.3137 (  1444 PWs)   bands (ev):

   -40.0893 -40.0893 -19.1863 -19.1863 -19.0040 -19.0040 -18.9074 -18.9074
     7.7230   7.7230   8.9879   8.9879   9.4457   9.4457  11.1857

          k = 0.2500 0.4330 0.0000 (  1438 PWs)   bands (ev):

   -40.1020 -40.0807 -19.1219 -19.0922 -19.0617 -19.0099 -18.9506 -18.9273
     7.0218   8.3242   8.4549   8.4953   9.8096  10.1334  10.4728

          k = 0.2500 0.4330 0.0784 (  1445 PWs)   bands (ev):

   -40.1011 -40.0816 -19.1239 -19.1203 -19.0297 -19.0204 -18.9530 -18.9167
     7.0691   8.2600   8.4906   8.5705   9.7906  10.0295  10.4829

          k = 0.2500 0.4330 0.1568 (  1446 PWs)   bands (ev):

   -40.0989 -40.0838 -19.1487 -19.1332 -19.0314 -18.9967 -18.9524 -18.9010
     7.2051   8.1205   8.6001   8.7288   9.7220   9.7836  10.5434

          k = 0.2500 0.4330 0.2353 (  1430 PWs)   bands (ev):

   -40.0953 -40.0872 -19.1631 -19.1492 -19.0275 -18.9975 -18.9291 -18.8956
     7.4134   7.9156   8.7708   8.9059   9.5304   9.5873  10.7099

          k = 0.2500 0.4330-0.3137 (  1438 PWs)   bands (ev):

   -40.0913 -40.0913 -19.1623 -19.1623 -19.0133 -19.0133 -18.9055 -18.9055
     7.6641   7.6641   8.9381   8.9381   9.4461   9.4461  10.9980

          k = 0.2500 0.5292 0.0000 (  1427 PWs)   bands (ev):

   -40.0935 -40.0826 -19.1370 -19.0810 -19.0447 -19.0255 -18.9731 -18.9563
     7.7169   8.2701   8.3261   8.3892   9.7822   9.9072  10.7014

          k = 0.2500 0.5292 0.0784 (  1431 PWs)   bands (ev):

   -40.0931 -40.0831 -19.1400 -19.0998 -19.0602 -19.0002 -18.9775 -18.9397
     7.7454   8.2430   8.3571   8.4783   9.7404   9.8127  10.7050

          k = 0.2500 0.5292 0.1568 (  1432 PWs)   bands (ev):

   -40.0920 -40.0842 -19.1524 -19.1269 -19.0698 -18.9995 -18.9526 -18.9155
     7.8245   8.1996   8.4804   8.6611   9.5619   9.6264  10.7413

          k = 0.2500 0.5292 0.2353 (  1433 PWs)   bands (ev):

   -40.0902 -40.0860 -19.1648 -19.1510 -19.0599 -19.0181 -18.9209 -18.9012
     7.9345   8.1397   8.6842   8.8985   9.2609   9.4209  10.8588

          k = 0.2500 0.5292-0.3137 (  1446 PWs)   bands (ev):

   -40.0881 -40.0881 -19.1651 -19.1651 -19.0402 -19.0402 -18.9029 -18.9029
     8.0478   8.0478   8.9484   8.9484   9.1681   9.1681  11.0884

          k = 0.3333 0.5774 0.0000 (  1434 PWs)   bands (ev):

   -40.0869 -40.0869 -19.1276 -19.0662 -19.0662 -18.9991 -18.9897 -18.9897
     8.1686   8.1686   8.2713   8.3620   9.7744   9.7744  10.7952

          k = 0.3333 0.5774 0.0784 (  1428 PWs)   bands (ev):

   -40.0869 -40.0869 -19.1226 -19.0876 -19.0876 -19.0040 -18.9679 -18.9679
     8.2146   8.2146   8.2903   8.3816   9.6985   9.6985  10.7966

          k = 0.3333 0.5774 0.1568 (  1431 PWs)   bands (ev):

   -40.0869 -40.0869 -19.1208 -19.1208 -19.1089 -19.0180 -18.9341 -18.9341
     8.3405   8.3452   8.3452   8.4241   9.4984   9.4984  10.8112

          k = 0.3333 0.5774 0.2353 (  1437 PWs)   bands (ev):

   -40.0869 -40.0869 -19.1448 -19.1448 -19.0882 -19.0390 -18.9097 -18.9097
     8.4029   8.4555   8.5340   8.5340   9.2448   9.2448  10.8994

          k = 0.3333 0.5774-0.3137 (  1428 PWs)   bands (ev):

   -40.0869 -40.0869 -19.1534 -19.1534 -19.0636 -19.0636 -18.9008 -18.9008
     8.4494   8.4494   8.6663   8.6663   9.0891   9.0891  11.1136

     the Fermi energy is     8.8268 ev

!    total energy              =    -306.86204467 Ry
     total all-electron energy =     -3050.002815 Ry
     estimated scf accuracy    <          8.9E-10 Ry
     smearing contrib. (-TS)   =      -0.00103547 Ry
     internal energy E=F+TS    =    -306.86100919 Ry

     The total energy is F=E-TS. E is the sum of the following terms:
     one-electron contribution =     -74.36237973 Ry
     hartree contribution      =      42.25290317 Ry
     xc contribution           =     -34.52431347 Ry
     ewald contribution        =    -126.46581261 Ry
     one-center paw contrib.   =    -113.76140654 Ry

     convergence has been achieved in   6 iterations

     Writing all to output data dir sc_rhocut.out/scandium.save/

     init_run     :      0.55s CPU      0.57s WALL (       1 calls)
     electrons    :      8.86s CPU      9.57s WALL (       1 calls)

     Called by init_run:
     wfcinit      :      0.37s CPU      0.39s WALL (       1 calls)
     potinit      :      0.05s CPU      0.05s WALL (       1 calls)
     hinit0       :      0.10s CPU      0.11s WALL (       1 calls)

     Called by electrons:
     c_bands      :      7.73s CPU      8.32s WALL (       7 calls)
     sum_band     :      0.88s CPU      0.91s WALL (       7 calls)
     v_of_rho     :      0.00s CPU      0.01s WALL (       7 calls)
     newd         :      0.07s CPU      0.07s WALL (       7 calls)
     PAW_pot      :      0.21s CPU      0.21s WALL (       7 calls)
     mix_rho      :      0.00s CPU      0.00s WALL (       7 calls)

     Called by c_bands:
     init_us_2    :      0.06s CPU      0.07s WALL (    1425 calls)
     init_us_2:cp :      0.06s CPU      0.07s WALL (    1425 calls)
     cegterg      :      7.55s CPU      7.90s WALL (     665 calls)

     Called by *egterg:
     cdiaghg      :      1.27s CPU      1.32s WALL (    4433 calls)
     h_psi        :      5.34s CPU      5.61s WALL (    4623 calls)
     s_psi        :      0.22s CPU      0.23s WALL (    4623 calls)
     g_psi        :      0.02s CPU      0.02s WALL (    3863 calls)

     Called by h_psi:
     h_psi:calbec :      0.36s CPU      0.37s WALL (    4623 calls)
     vloc_psi     :      4.73s CPU      4.97s WALL (    4623 calls)
     add_vuspsi   :      0.22s CPU      0.23s WALL (    4623 calls)

     General routines
     calbec       :      0.43s CPU      0.45s WALL (    5288 calls)
     fft          :      0.01s CPU      0.01s WALL (      41 calls)
     ffts         :      0.00s CPU      0.00s WALL (      14 calls)
     fftw         :      4.96s CPU      5.21s WALL (   83849 calls)
     interpolate  :      0.00s CPU      0.00s WALL (       7 calls)

     Parallel routines

     PWSCF        :      9.75s CPU     10.81s WALL


   This run was terminated on:  14:32:20  26Jul2023            

=------------------------------------------------------------------------------=
   JOB DONE.
=------------------------------------------------------------------------------=
