
     Program PWSCF v.7.2 starts on 19Jun2023 at 14:20:53 

     This program is part of the open-source Quantum ESPRESSO suite
     for quantum simulation of materials; please cite
         "P. Giannozzi et al., J. Phys.:Condens. Matter 21 395502 (2009);
         "P. Giannozzi et al., J. Phys.:Condens. Matter 29 465901 (2017);
         "P. Giannozzi et al., J. Chem. Phys. 152 154105 (2020);
          URL http://www.quantum-espresso.org", 
     in publications or presentations arising from this work. More details at
     http://www.quantum-espresso.org/quote

     Parallel version (MPI), running on     1 processors

     MPI processes distributed on     1 nodes
     317466 MiB available memory on the printing compute node when the environment starts

     Waiting for input...
     Reading input from standard input

     Current dimensions of program PWSCF are:
     Max number of different atomic species (ntypx) = 10
     Max number of k-points (npk) = 120000
     Max angular momentum in pseudopotentials (lmaxx) =  4
     file Sc.pz-spn-kjpaw_psl.1.0.0.UPF: wavefunction(s)  3S 3P 3D renormalized

     Subspace diagonalization in iterative solution of the eigenvalue problem:
     a serial algorithm will be used


     G-vector sticks info
     --------------------
     sticks:   dense  smooth     PW     G-vecs:    dense   smooth      PW
     Sum        1069    1069    313                45687    45687    7055

     Using Slab Decomposition



     bravais-lattice index     =            4
     lattice parameter (alat)  =       6.2531  a.u.
     unit-cell volume          =     337.5249 (a.u.)^3
     number of atoms/cell      =            2
     number of atomic types    =            1
     number of electrons       =        22.00
     number of Kohn-Sham states=           15
     kinetic-energy cutoff     =     100.0000  Ry
     charge density cutoff     =     400.0000  Ry
     scf convergence threshold =      1.0E-08
     mixing beta               =       0.7000
     number of iterations used =            8  plain     mixing
     energy convergence thresh.=      1.0E-04
     force convergence thresh. =      1.0E-03
     press convergence thresh. =      5.0E-01
     Exchange-correlation= SLA  PZ   NOGX NOGC
                           (   1   1   0   0   0   0   0)
     nstep                     =           50


     celldm(1)=   6.253104  celldm(2)=   0.000000  celldm(3)=   1.594000
     celldm(4)=   0.000000  celldm(5)=   0.000000  celldm(6)=   0.000000

     crystal axes: (cart. coord. in units of alat)
               a(1) = (   1.000000   0.000000   0.000000 )  
               a(2) = (  -0.500000   0.866025   0.000000 )  
               a(3) = (   0.000000   0.000000   1.594000 )  

     reciprocal axes: (cart. coord. in units 2 pi/alat)
               b(1) = (  1.000000  0.577350 -0.000000 )  
               b(2) = (  0.000000  1.154701  0.000000 )  
               b(3) = (  0.000000 -0.000000  0.627353 )  


     PseudoPot. # 1 for Sc read from file:
     ../../../Sc.pz-spn-kjpaw_psl.1.0.0.UPF
     MD5 check sum: 1f9095df0bb42a6568b4e9f256ff075f
     Pseudo is Projector augmented-wave + core cor, Zval = 11.0
     Generated using 'atomic' code by A. Dal Corso  v.7.1
     Shape of augmentation charge: PSQ
     Using radial grid of 1173 points,  6 beta functions with: 
                l(1) =   0
                l(2) =   0
                l(3) =   1
                l(4) =   1
                l(5) =   2
                l(6) =   2
     Q(r) pseudized with 0 coefficients 


     atomic species   valence    mass     pseudopotential
        Sc            11.00    44.59600     Sc( 1.00)

     24 Sym. Ops., with inversion, found (12 have fractional translation)



   Cartesian axes

     site n.     atom                  positions (alat units)
         1           Sc  tau(   1) = (   0.0000000   0.0000000   0.0000000  )
         2           Sc  tau(   2) = (   0.5000000   0.2886751   0.7970000  )

     number of k points=    95  Marzari-Vanderbilt smearing, width (Ry)=  0.0200
                       cart. coord. in units 2pi/alat
        k(    1) = (   0.0000000   0.0000000   0.0000000), wk =   0.0017361
        k(    2) = (   0.0000000   0.0000000   0.0784191), wk =   0.0034722
        k(    3) = (   0.0000000   0.0000000   0.1568381), wk =   0.0034722
        k(    4) = (   0.0000000   0.0000000   0.2352572), wk =   0.0034722
        k(    5) = (   0.0000000   0.0000000  -0.3136763), wk =   0.0017361
        k(    6) = (   0.0000000   0.0962250   0.0000000), wk =   0.0104167
        k(    7) = (   0.0000000   0.0962250   0.0784191), wk =   0.0208333
        k(    8) = (   0.0000000   0.0962250   0.1568381), wk =   0.0208333
        k(    9) = (   0.0000000   0.0962250   0.2352572), wk =   0.0208333
        k(   10) = (   0.0000000   0.0962250  -0.3136763), wk =   0.0104167
        k(   11) = (   0.0000000   0.1924501   0.0000000), wk =   0.0104167
        k(   12) = (   0.0000000   0.1924501   0.0784191), wk =   0.0208333
        k(   13) = (   0.0000000   0.1924501   0.1568381), wk =   0.0208333
        k(   14) = (   0.0000000   0.1924501   0.2352572), wk =   0.0208333
        k(   15) = (   0.0000000   0.1924501  -0.3136763), wk =   0.0104167
        k(   16) = (   0.0000000   0.2886751   0.0000000), wk =   0.0104167
        k(   17) = (   0.0000000   0.2886751   0.0784191), wk =   0.0208333
        k(   18) = (   0.0000000   0.2886751   0.1568381), wk =   0.0208333
        k(   19) = (   0.0000000   0.2886751   0.2352572), wk =   0.0208333
        k(   20) = (   0.0000000   0.2886751  -0.3136763), wk =   0.0104167
        k(   21) = (   0.0000000   0.3849002   0.0000000), wk =   0.0104167
        k(   22) = (   0.0000000   0.3849002   0.0784191), wk =   0.0208333
        k(   23) = (   0.0000000   0.3849002   0.1568381), wk =   0.0208333
        k(   24) = (   0.0000000   0.3849002   0.2352572), wk =   0.0208333
        k(   25) = (   0.0000000   0.3849002  -0.3136763), wk =   0.0104167
        k(   26) = (   0.0000000   0.4811252   0.0000000), wk =   0.0104167
        k(   27) = (   0.0000000   0.4811252   0.0784191), wk =   0.0208333
        k(   28) = (   0.0000000   0.4811252   0.1568381), wk =   0.0208333
        k(   29) = (   0.0000000   0.4811252   0.2352572), wk =   0.0208333
        k(   30) = (   0.0000000   0.4811252  -0.3136763), wk =   0.0104167
        k(   31) = (   0.0000000  -0.5773503   0.0000000), wk =   0.0052083
        k(   32) = (   0.0000000  -0.5773503   0.0784191), wk =   0.0104167
        k(   33) = (   0.0000000  -0.5773503   0.1568381), wk =   0.0104167
        k(   34) = (   0.0000000  -0.5773503   0.2352572), wk =   0.0104167
        k(   35) = (   0.0000000  -0.5773503  -0.3136763), wk =   0.0052083
        k(   36) = (   0.0833333   0.1443376   0.0000000), wk =   0.0104167
        k(   37) = (   0.0833333   0.1443376   0.0784191), wk =   0.0208333
        k(   38) = (   0.0833333   0.1443376   0.1568381), wk =   0.0208333
        k(   39) = (   0.0833333   0.1443376   0.2352572), wk =   0.0208333
        k(   40) = (   0.0833333   0.1443376  -0.3136763), wk =   0.0104167
        k(   41) = (   0.0833333   0.2405626   0.0000000), wk =   0.0208333
        k(   42) = (   0.0833333   0.2405626   0.0784191), wk =   0.0416667
        k(   43) = (   0.0833333   0.2405626   0.1568381), wk =   0.0416667
        k(   44) = (   0.0833333   0.2405626   0.2352572), wk =   0.0416667
        k(   45) = (   0.0833333   0.2405626  -0.3136763), wk =   0.0208333
        k(   46) = (   0.0833333   0.3367877   0.0000000), wk =   0.0208333
        k(   47) = (   0.0833333   0.3367877   0.0784191), wk =   0.0416667
        k(   48) = (   0.0833333   0.3367877   0.1568381), wk =   0.0416667
        k(   49) = (   0.0833333   0.3367877   0.2352572), wk =   0.0416667
        k(   50) = (   0.0833333   0.3367877  -0.3136763), wk =   0.0208333
        k(   51) = (   0.0833333   0.4330127   0.0000000), wk =   0.0208333
        k(   52) = (   0.0833333   0.4330127   0.0784191), wk =   0.0416667
        k(   53) = (   0.0833333   0.4330127   0.1568381), wk =   0.0416667
        k(   54) = (   0.0833333   0.4330127   0.2352572), wk =   0.0416667
        k(   55) = (   0.0833333   0.4330127  -0.3136763), wk =   0.0208333
        k(   56) = (   0.0833333   0.5292377   0.0000000), wk =   0.0208333
        k(   57) = (   0.0833333   0.5292377   0.0784191), wk =   0.0416667
        k(   58) = (   0.0833333   0.5292377   0.1568381), wk =   0.0416667
        k(   59) = (   0.0833333   0.5292377   0.2352572), wk =   0.0416667
        k(   60) = (   0.0833333   0.5292377  -0.3136763), wk =   0.0208333
        k(   61) = (   0.1666667   0.2886751   0.0000000), wk =   0.0104167
        k(   62) = (   0.1666667   0.2886751   0.0784191), wk =   0.0208333
        k(   63) = (   0.1666667   0.2886751   0.1568381), wk =   0.0208333
        k(   64) = (   0.1666667   0.2886751   0.2352572), wk =   0.0208333
        k(   65) = (   0.1666667   0.2886751  -0.3136763), wk =   0.0104167
        k(   66) = (   0.1666667   0.3849002   0.0000000), wk =   0.0208333
        k(   67) = (   0.1666667   0.3849002   0.0784191), wk =   0.0416667
        k(   68) = (   0.1666667   0.3849002   0.1568381), wk =   0.0416667
        k(   69) = (   0.1666667   0.3849002   0.2352572), wk =   0.0416667
        k(   70) = (   0.1666667   0.3849002  -0.3136763), wk =   0.0208333
        k(   71) = (   0.1666667   0.4811252   0.0000000), wk =   0.0208333
        k(   72) = (   0.1666667   0.4811252   0.0784191), wk =   0.0416667
        k(   73) = (   0.1666667   0.4811252   0.1568381), wk =   0.0416667
        k(   74) = (   0.1666667   0.4811252   0.2352572), wk =   0.0416667
        k(   75) = (   0.1666667   0.4811252  -0.3136763), wk =   0.0208333
        k(   76) = (   0.1666667   0.5773503   0.0000000), wk =   0.0104167
        k(   77) = (   0.1666667   0.5773503   0.0784191), wk =   0.0208333
        k(   78) = (   0.1666667   0.5773503   0.1568381), wk =   0.0208333
        k(   79) = (   0.1666667   0.5773503   0.2352572), wk =   0.0208333
        k(   80) = (   0.1666667   0.5773503  -0.3136763), wk =   0.0104167
        k(   81) = (   0.2500000   0.4330127   0.0000000), wk =   0.0104167
        k(   82) = (   0.2500000   0.4330127   0.0784191), wk =   0.0208333
        k(   83) = (   0.2500000   0.4330127   0.1568381), wk =   0.0208333
        k(   84) = (   0.2500000   0.4330127   0.2352572), wk =   0.0208333
        k(   85) = (   0.2500000   0.4330127  -0.3136763), wk =   0.0104167
        k(   86) = (   0.2500000   0.5292377   0.0000000), wk =   0.0208333
        k(   87) = (   0.2500000   0.5292377   0.0784191), wk =   0.0416667
        k(   88) = (   0.2500000   0.5292377   0.1568381), wk =   0.0416667
        k(   89) = (   0.2500000   0.5292377   0.2352572), wk =   0.0416667
        k(   90) = (   0.2500000   0.5292377  -0.3136763), wk =   0.0208333
        k(   91) = (   0.3333333   0.5773503   0.0000000), wk =   0.0034722
        k(   92) = (   0.3333333   0.5773503   0.0784191), wk =   0.0069444
        k(   93) = (   0.3333333   0.5773503   0.1568381), wk =   0.0069444
        k(   94) = (   0.3333333   0.5773503   0.2352572), wk =   0.0069444
        k(   95) = (   0.3333333   0.5773503  -0.3136763), wk =   0.0034722

     Dense  grid:    45687 G-vectors     FFT dimensions: (  45,  45,  64)

     Estimated max dynamical RAM per process >     299.60 MB

     Check: negative core charge=   -0.000012

     Initial potential from superposition of free atoms

     starting charge      21.9956, renormalised to      22.0000
     Starting wfcs are   20 randomized atomic wfcs
     Checking if some PAW data can be deallocated... 

     total cpu time spent up to now is       15.5 secs

     Self-consistent Calculation

     iteration #  1     ecut=   100.00 Ry     beta= 0.70
     Davidson diagonalization with overlap
     ethr =  1.00E-02,  avg # of iterations =  2.1

     Threshold (ethr) on eigenvalues was too large:
     Diagonalizing with lowered threshold

     Davidson diagonalization with overlap
     c_bands:  2 eigenvalues not converged
     c_bands:  1 eigenvalues not converged
     c_bands:  1 eigenvalues not converged
     c_bands:  1 eigenvalues not converged
     c_bands:  1 eigenvalues not converged
     c_bands:  1 eigenvalues not converged
     c_bands:  1 eigenvalues not converged
     c_bands:  2 eigenvalues not converged
     c_bands:  1 eigenvalues not converged
     c_bands:  4 eigenvalues not converged
     c_bands:  3 eigenvalues not converged
     c_bands:  2 eigenvalues not converged
     c_bands:  1 eigenvalues not converged
     c_bands:  2 eigenvalues not converged
     c_bands:  1 eigenvalues not converged
     c_bands:  3 eigenvalues not converged
     c_bands:  3 eigenvalues not converged
     c_bands:  1 eigenvalues not converged
     c_bands:  5 eigenvalues not converged
     c_bands:  5 eigenvalues not converged
     c_bands:  1 eigenvalues not converged
     c_bands:  4 eigenvalues not converged
     c_bands:  3 eigenvalues not converged
     c_bands:  2 eigenvalues not converged
     c_bands:  2 eigenvalues not converged
     c_bands:  1 eigenvalues not converged
     c_bands:  1 eigenvalues not converged
     ethr =  2.20E-05,  avg # of iterations = 17.6

     total cpu time spent up to now is      140.2 secs

     total energy              =    -306.86719749 Ry
     estimated scf accuracy    <       0.02014827 Ry

     iteration #  2     ecut=   100.00 Ry     beta= 0.70
     Davidson diagonalization with overlap
     ethr =  9.16E-05,  avg # of iterations =  4.4

     total cpu time spent up to now is      166.5 secs

     total energy              =    -306.87217388 Ry
     estimated scf accuracy    <       0.00135264 Ry

     iteration #  3     ecut=   100.00 Ry     beta= 0.70
     Davidson diagonalization with overlap
     c_bands:  2 eigenvalues not converged
     c_bands:  1 eigenvalues not converged
     c_bands:  1 eigenvalues not converged
     ethr =  6.15E-06,  avg # of iterations =  8.5

     total cpu time spent up to now is      207.3 secs

     total energy              =    -306.87327238 Ry
     estimated scf accuracy    <       0.00035503 Ry

     iteration #  4     ecut=   100.00 Ry     beta= 0.70
     Davidson diagonalization with overlap
     c_bands:  2 eigenvalues not converged
     c_bands:  1 eigenvalues not converged
     c_bands:  1 eigenvalues not converged
     ethr =  1.61E-06,  avg # of iterations =  7.6

     total cpu time spent up to now is      241.5 secs

     total energy              =    -306.87346276 Ry
     estimated scf accuracy    <       0.00017598 Ry

     iteration #  5     ecut=   100.00 Ry     beta= 0.70
     Davidson diagonalization with overlap
     ethr =  8.00E-07,  avg # of iterations =  6.3

     total cpu time spent up to now is      271.4 secs

     total energy              =    -306.87354812 Ry
     estimated scf accuracy    <       0.00001513 Ry

     iteration #  6     ecut=   100.00 Ry     beta= 0.70
     Davidson diagonalization with overlap
     ethr =  6.88E-08,  avg # of iterations =  9.3

     total cpu time spent up to now is      308.7 secs

     total energy              =    -306.87355279 Ry
     estimated scf accuracy    <       0.00001966 Ry

     iteration #  7     ecut=   100.00 Ry     beta= 0.70
     Davidson diagonalization with overlap
     ethr =  6.88E-08,  avg # of iterations =  5.5

     total cpu time spent up to now is      337.7 secs

     total energy              =    -306.87355923 Ry
     estimated scf accuracy    <       0.00000069 Ry

     iteration #  8     ecut=   100.00 Ry     beta= 0.70
     Davidson diagonalization with overlap
     ethr =  3.15E-09,  avg # of iterations = 12.0

     total cpu time spent up to now is      382.6 secs

     total energy              =    -306.87356069 Ry
     estimated scf accuracy    <       0.00000002 Ry

     iteration #  9     ecut=   100.00 Ry     beta= 0.70
     Davidson diagonalization with overlap
     c_bands:  2 eigenvalues not converged
     c_bands:  1 eigenvalues not converged
     c_bands:  3 eigenvalues not converged
     c_bands:  1 eigenvalues not converged
     c_bands:  2 eigenvalues not converged
     c_bands:  2 eigenvalues not converged
     c_bands:  1 eigenvalues not converged
     c_bands:  1 eigenvalues not converged
     c_bands:  1 eigenvalues not converged
     c_bands:  1 eigenvalues not converged
     c_bands:  1 eigenvalues not converged
     c_bands:  1 eigenvalues not converged
     ethr =  6.93E-11,  avg # of iterations = 16.3

     total cpu time spent up to now is      452.6 secs

     End of self-consistent calculation

          k = 0.0000 0.0000 0.0000 (  5683 PWs)   bands (ev):

   -40.1383 -40.0739 -19.2235 -18.8899 -18.8899 -18.8315 -18.8315 -18.8145
     3.7531   7.1394   9.3011  10.3505  10.3505  10.4608  10.7544

          k = 0.0000 0.0000 0.0784 (  5677 PWs)   bands (ev):

   -40.1358 -40.0764 -19.2084 -18.8877 -18.8877 -18.8337 -18.8337 -18.8306
     3.8544   6.9861   9.2696  10.3078  10.3078  10.3959  10.6987

          k = 0.0000 0.0000 0.1568 (  5666 PWs)   bands (ev):

   -40.1289 -40.0834 -19.1653 -18.8814 -18.8814 -18.8761 -18.8401 -18.8401
     4.1514   6.5412   9.2790  10.2196  10.2454  10.2459  10.5637

          k = 0.0000 0.0000 0.2353 (  5690 PWs)   bands (ev):

   -40.1185 -40.0939 -19.1001 -18.9437 -18.8719 -18.8719 -18.8496 -18.8496
     4.6230   5.9063   9.4174   9.9501  10.2334  10.2336  10.4112

          k = 0.0000 0.0000-0.3137 (  5672 PWs)   bands (ev):

   -40.1062 -40.1062 -19.0224 -19.0224 -18.8608 -18.8608 -18.8608 -18.8608
     5.2302   5.2302   9.6633   9.6633  10.2914  10.2914  10.2915

          k = 0.0000 0.0962 0.0000 (  5689 PWs)   bands (ev):

   -40.1349 -40.0726 -19.2146 -18.9082 -18.8960 -18.8506 -18.8341 -18.8182
     3.9044   7.2694   9.1757  10.0813  10.4600  10.6302  10.6992

          k = 0.0000 0.0962 0.0784 (  5671 PWs)   bands (ev):

   -40.1326 -40.0750 -19.2005 -18.9055 -18.8936 -18.8586 -18.8365 -18.8279
     4.0042   7.1157   9.1477  10.0773  10.4055  10.5030  10.6283

          k = 0.0000 0.0962 0.1568 (  5677 PWs)   bands (ev):

   -40.1259 -40.0817 -19.1600 -18.8986 -18.8920 -18.8869 -18.8442 -18.8432
     4.2970   6.6685   9.1698  10.0832  10.2319  10.3323  10.6486

          k = 0.0000 0.0962 0.2353 (  5667 PWs)   bands (ev):

   -40.1158 -40.0919 -19.0989 -18.9533 -18.8863 -18.8769 -18.8584 -18.8533
     4.7624   6.0341   9.3305   9.9169  10.1299  10.3174  10.3776

          k = 0.0000 0.0962-0.3137 (  5650 PWs)   bands (ev):

   -40.1039 -40.1039 -19.0263 -19.0263 -18.8727 -18.8727 -18.8651 -18.8651
     5.3629   5.3629   9.5991   9.5991  10.2305  10.2310  10.3754

          k = 0.0000 0.1925 0.0000 (  5693 PWs)   bands (ev):

   -40.1257 -40.0690 -19.1894 -18.9583 -18.9121 -18.9017 -18.8416 -18.8295
     4.3436   7.6177   8.8897   9.6701  10.4047  10.7778  10.8110

          k = 0.0000 0.1925 0.0784 (  5683 PWs)   bands (ev):

   -40.1236 -40.0712 -19.1784 -18.9542 -18.9113 -18.9094 -18.8443 -18.8357
     4.4386   7.4642   8.8732   9.6894  10.3959  10.5415  10.6282

          k = 0.0000 0.1925 0.1568 (  5681 PWs)   bands (ev):

   -40.1174 -40.0774 -19.1468 -18.9476 -18.9345 -18.9018 -18.8522 -18.8520
     4.7174   7.0137   8.9341   9.7462  10.1706  10.4046  10.5370

          k = 0.0000 0.1925 0.2353 (  5680 PWs)   bands (ev):

   -40.1083 -40.0866 -19.0993 -18.9881 -18.9209 -18.8904 -18.8743 -18.8635
     5.1618   6.3875   9.1355   9.7345   9.9539  10.2565  10.5307

          k = 0.0000 0.1925-0.3137 (  5686 PWs)   bands (ev):

   -40.0974 -40.0974 -19.0434 -19.0434 -18.8983 -18.8983 -18.8769 -18.8769
     5.7376   5.7376   9.4316   9.4316  10.0754  10.0754  10.6020

          k = 0.0000 0.2887 0.0000 (  5673 PWs)   bands (ev):

   -40.1125 -40.0647 -19.1516 -19.0275 -18.9695 -18.9332 -18.8526 -18.8482
     5.0252   8.0247   8.5817   9.2457  10.1854  10.4661  10.5663

          k = 0.0000 0.2887 0.0784 (  5688 PWs)   bands (ev):

   -40.1107 -40.0665 -19.1482 -19.0188 -18.9787 -18.9302 -18.8557 -18.8515
     5.1104   7.8765   8.5925   9.2764  10.1577  10.4064  10.5794

          k = 0.0000 0.2887 0.1568 (  5690 PWs)   bands (ev):

   -40.1056 -40.0717 -19.1364 -19.0146 -18.9838 -18.9215 -18.8645 -18.8631
     5.3608   7.4429   8.7096   9.3530  10.0118  10.2954  10.6290

          k = 0.0000 0.2887 0.2353 (  5686 PWs)   bands (ev):

   -40.0978 -40.0795 -19.1144 -19.0470 -18.9521 -18.9085 -18.8851 -18.8776
     5.7598   6.8653   8.9364   9.3904   9.8529  10.1256  10.7297

          k = 0.0000 0.2887-0.3137 (  5686 PWs)   bands (ev):

   -40.0887 -40.0887 -19.0832 -19.0832 -18.9162 -18.9162 -18.8931 -18.8931
     6.2775   6.2775   9.2086   9.2087   9.9282   9.9284  10.8826

          k = 0.0000 0.3849 0.0000 (  5687 PWs)   bands (ev):

   -40.0983 -40.0614 -19.1072 -19.0973 -19.0352 -18.9537 -18.8734 -18.8641
     5.8645   8.1839   8.3322   8.9111  10.2110  10.2190  10.3540

          k = 0.0000 0.3849 0.0784 (  5689 PWs)   bands (ev):

   -40.0969 -40.0628 -19.1337 -19.0664 -19.0396 -18.9503 -18.8734 -18.8675
     5.9315   8.0425   8.4012   8.9526  10.0662  10.2977  10.4034

          k = 0.0000 0.3849 0.1568 (  5699 PWs)   bands (ev):

   -40.0929 -40.0668 -19.1503 -19.0790 -19.0061 -18.9407 -18.8776 -18.8773
     6.1276   7.7099   8.5622   9.0408   9.9206  10.2474  10.5486

          k = 0.0000 0.3849 0.2353 (  5710 PWs)   bands (ev):

   -40.0869 -40.0728 -19.1507 -19.1094 -18.9603 -18.9262 -18.8925 -18.8919
     6.4382   7.2808   8.7850   9.0944   9.8334  10.0784  10.7788

          k = 0.0000 0.3849-0.3137 (  5704 PWs)   bands (ev):

   -40.0799 -40.0799 -19.1358 -19.1358 -18.9207 -18.9207 -18.9091 -18.9091
     6.8365   6.8365   9.0011   9.0011   9.8951   9.8951  11.0737

          k = 0.0000 0.4811 0.0000 (  5716 PWs)   bands (ev):

   -40.0865 -40.0603 -19.1486 -19.0821 -19.0660 -18.9684 -18.9006 -18.8728
     6.7156   8.0182   8.1749   8.6615  10.0484  10.2127  10.4246

          k = 0.0000 0.4811 0.0784 (  5702 PWs)   bands (ev):

   -40.0855 -40.0613 -19.1627 -19.0960 -19.0412 -18.9648 -18.8972 -18.8764
     6.7472   7.9224   8.2739   8.6918  10.0538  10.2746  10.3782

          k = 0.0000 0.4811 0.1568 (  5699 PWs)   bands (ev):

   -40.0827 -40.0641 -19.1814 -19.1245 -18.9971 -18.9545 -18.8934 -18.8869
     6.8436   7.7269   8.4673   8.7887  10.0408  10.2555  10.4574

          k = 0.0000 0.4811 0.2353 (  5709 PWs)   bands (ev):

   -40.0784 -40.0684 -19.1876 -19.1552 -18.9537 -18.9391 -18.9025 -18.8993
     7.0055   7.4785   8.6983   8.8991   9.9840  10.1057  10.7507

          k = 0.0000 0.4811-0.3137 (  5706 PWs)   bands (ev):

   -40.0734 -40.0734 -19.1782 -19.1782 -18.9208 -18.9208 -18.9195 -18.9195
     7.2247   7.2247   8.8815   8.8815   9.9874   9.9876  11.1350

          k = 0.0000-0.5774 0.0000 (  5712 PWs)   bands (ev):

   -40.0816 -40.0606 -19.1674 -19.0991 -19.0466 -18.9737 -18.9148 -18.8760
     7.2300   7.7826   8.1217   8.5463   9.9876  10.1633  10.5237

          k = 0.0000-0.5774 0.0784 (  5716 PWs)   bands (ev):

   -40.0808 -40.0614 -19.1786 -19.1118 -19.0277 -18.9701 -18.9095 -18.8797
     7.2095   7.7596   8.2329   8.5436  10.0427  10.2287  10.4527

          k = 0.0000-0.5774 0.1568 (  5702 PWs)   bands (ev):

   -40.0785 -40.0636 -19.1957 -19.1409 -18.9884 -18.9596 -18.9017 -18.8904
     7.1942   7.6668   8.4961   8.5946  10.1386  10.2732  10.4219

          k = 0.0000-0.5774 0.2353 (  5698 PWs)   bands (ev):

   -40.0751 -40.0670 -19.2025 -19.1718 -18.9487 -18.9438 -18.9064 -18.9028
     7.2378   7.5102   8.7327   8.7646  10.0905  10.1459  10.7330

          k = 0.0000-0.5774-0.3137 (  5732 PWs)   bands (ev):

   -40.0711 -40.0711 -19.1942 -19.1942 -18.9251 -18.9251 -18.9186 -18.9186
     7.3505   7.3505   8.8503   8.8503  10.0615  10.0618  11.1434

          k = 0.0833 0.1443 0.0000 (  5696 PWs)   bands (ev):

   -40.1287 -40.0701 -19.1976 -18.9388 -18.9151 -18.8786 -18.8417 -18.8257
     4.1999   7.5108   8.9752   9.7819  10.4854  10.6898  10.7602

          k = 0.0833 0.1443 0.0784 (  5681 PWs)   bands (ev):

   -40.1264 -40.0724 -19.1854 -18.9352 -18.9145 -18.8866 -18.8442 -18.8324
     4.2965   7.3569   8.9542   9.7969  10.4932  10.5088  10.5828

          k = 0.0833 0.1443 0.1568 (  5692 PWs)   bands (ev):

   -40.1201 -40.0787 -19.1506 -18.9284 -18.9247 -18.8966 -18.8515 -18.8483
     4.5804   6.9064   9.0025   9.8453  10.1969  10.4329  10.4907

          k = 0.0833 0.1443 0.2353 (  5671 PWs)   bands (ev):

   -40.1107 -40.0883 -19.0983 -18.9757 -18.9091 -18.8899 -18.8668 -18.8622
     5.0323   6.2757   9.1933   9.8105   9.9871  10.2856  10.4766

          k = 0.0833 0.1443-0.3137 (  5672 PWs)   bands (ev):

   -40.0995 -40.0995 -19.0366 -19.0366 -18.8914 -18.8914 -18.8734 -18.8734
     5.6173   5.6173   9.4861   9.4861  10.1160  10.1165  10.5326

          k = 0.0833 0.2406 0.0000 (  5684 PWs)   bands (ev):

   -40.1175 -40.0662 -19.1660 -18.9938 -18.9601 -18.9127 -18.8546 -18.8407
     4.7624   7.9080   8.6962   9.3709  10.2558  10.4612  10.7544

          k = 0.0833 0.2406 0.0784 (  5687 PWs)   bands (ev):

   -40.1155 -40.0681 -19.1588 -18.9879 -18.9641 -18.9159 -18.8577 -18.8441
     4.8520   7.7562   8.6921   9.3986  10.2649  10.3822  10.6759

          k = 0.0833 0.2406 0.1568 (  5690 PWs)   bands (ev):

   -40.1100 -40.0737 -19.1377 -18.9886 -18.9649 -18.9167 -18.8665 -18.8552
     5.1152   7.3073   8.7867   9.4740  10.0857  10.3015  10.6264

          k = 0.0833 0.2406 0.2353 (  5700 PWs)   bands (ev):

   -40.1017 -40.0821 -19.1051 -19.0229 -18.9401 -18.9100 -18.8797 -18.8729
     5.5351   6.7001   9.0094   9.5180   9.8709  10.1410  10.6781

          k = 0.0833 0.2406-0.3137 (  5700 PWs)   bands (ev):

   -40.0919 -40.0919 -19.0648 -19.0648 -18.9139 -18.9139 -18.8869 -18.8869
     6.0805   6.0805   9.3001   9.3001   9.9460   9.9462  10.7838

          k = 0.0833 0.3368 0.0000 (  5687 PWs)   bands (ev):

   -40.1037 -40.0624 -19.1246 -19.0620 -19.0148 -18.9442 -18.8685 -18.8630
     5.5302   8.2264   8.4407   8.9953  10.1520  10.2051  10.5103

          k = 0.0833 0.3368 0.0784 (  5693 PWs)   bands (ev):

   -40.1021 -40.0640 -19.1315 -19.0482 -19.0183 -18.9441 -18.8733 -18.8619
     5.6066   8.0779   8.4828   9.0330  10.0616  10.2717  10.4930

          k = 0.0833 0.3368 0.1568 (  5696 PWs)   bands (ev):

   -40.0977 -40.0685 -19.1369 -19.0537 -18.9979 -18.9394 -18.8839 -18.8658
     5.8309   7.6811   8.6306   9.1231   9.9188  10.2210  10.5630

          k = 0.0833 0.3368 0.2353 (  5702 PWs)   bands (ev):

   -40.0910 -40.0752 -19.1301 -19.0823 -18.9598 -18.9286 -18.8978 -18.8793
     6.1876   7.1694   8.8564   9.1953   9.7849  10.0283  10.7529

          k = 0.0833 0.3368-0.3137 (  5706 PWs)   bands (ev):

   -40.0831 -40.0831 -19.1106 -19.1106 -18.9300 -18.9300 -18.8985 -18.8985
     6.6485   6.6485   9.0928   9.0928   9.8296   9.8296  10.9900

          k = 0.0833 0.4330 0.0000 (  5710 PWs)   bands (ev):

   -40.0905 -40.0604 -19.1223 -19.0806 -19.0626 -18.9687 -18.8905 -18.8804
     6.3937   8.1983   8.2572   8.7312  10.0373  10.2779  10.3218

          k = 0.0833 0.4330 0.0784 (  5701 PWs)   bands (ev):

   -40.0894 -40.0616 -19.1414 -19.0807 -19.0451 -18.9661 -18.8918 -18.8797
     6.4459   8.0661   8.3511   8.7823   9.9860  10.2616  10.3652

          k = 0.0833 0.4330 0.1568 (  5695 PWs)   bands (ev):

   -40.0861 -40.0648 -19.1613 -19.1048 -19.0034 -18.9559 -18.9008 -18.8785
     6.5987   7.8128   8.5202   8.8952   9.8826  10.1547  10.5180

          k = 0.0833 0.4330 0.2353 (  5711 PWs)   bands (ev):

   -40.0812 -40.0697 -19.1668 -19.1338 -18.9671 -18.9376 -18.9138 -18.8853
     6.8402   7.4888   8.7441   8.9890   9.7956   9.9687  10.7690

          k = 0.0833 0.4330-0.3137 (  5718 PWs)   bands (ev):

   -40.0755 -40.0755 -19.1566 -19.1566 -18.9423 -18.9423 -18.9032 -18.9032
     7.1484   7.1484   8.9430   8.9430   9.8131   9.8131  11.0947

          k = 0.0833 0.5292 0.0000 (  5708 PWs)   bands (ev):

   -40.0816 -40.0605 -19.1572 -19.0902 -19.0470 -18.9821 -18.9145 -18.8873
     7.1520   7.9462   8.1633   8.5449   9.9717  10.1219  10.5191

          k = 0.0833 0.5292 0.0784 (  5707 PWs)   bands (ev):

   -40.0808 -40.0613 -19.1684 -19.1034 -19.0296 -18.9766 -18.9115 -18.8885
     7.1567   7.8948   8.2656   8.5669   9.9873  10.1291  10.5059

          k = 0.0833 0.5292 0.1568 (  5700 PWs)   bands (ev):

   -40.0785 -40.0636 -19.1855 -19.1325 -18.9987 -18.9585 -18.9144 -18.8879
     7.1883   7.7695   8.4847   8.6720   9.9880  10.0679  10.5784

          k = 0.0833 0.5292 0.2353 (  5704 PWs)   bands (ev):

   -40.0751 -40.0670 -19.1925 -19.1628 -18.9725 -18.9338 -18.9252 -18.8899
     7.2723   7.5933   8.7231   8.8466   9.8815   9.9533  10.8216

          k = 0.0833 0.5292-0.3137 (  5708 PWs)   bands (ev):

   -40.0711 -40.0711 -19.1846 -19.1846 -18.9500 -18.9500 -18.9036 -18.9036
     7.4137   7.4137   8.8915   8.8915   9.8451   9.8451  11.1721

          k = 0.1667 0.2887 0.0000 (  5694 PWs)   bands (ev):

   -40.1056 -40.0628 -19.1306 -19.0319 -19.0242 -18.9329 -18.8782 -18.8596
     5.4165   8.2630   8.4956   8.9993  10.1424  10.1607  10.5991

          k = 0.1667 0.2887 0.0784 (  5692 PWs)   bands (ev):

   -40.1040 -40.0645 -19.1325 -19.0284 -19.0187 -18.9381 -18.8812 -18.8589
     5.4961   8.1097   8.5252   9.0329  10.1104  10.1916  10.5444

          k = 0.1667 0.2887 0.1568 (  5707 PWs)   bands (ev):

   -40.0994 -40.0691 -19.1314 -19.0438 -18.9875 -18.9438 -18.8893 -18.8623
     5.7302   7.6828   8.6672   9.1258   9.9608  10.1821  10.5363

          k = 0.1667 0.2887 0.2353 (  5711 PWs)   bands (ev):

   -40.0925 -40.0761 -19.1204 -19.0702 -18.9532 -18.9407 -18.8987 -18.8755
     6.1030   7.1367   8.8949   9.2234   9.7778   9.9871  10.7101

          k = 0.1667 0.2887-0.3137 (  5704 PWs)   bands (ev):

   -40.0843 -40.0843 -19.0985 -19.0985 -18.9361 -18.9361 -18.8948 -18.8948
     6.5867   6.5867   9.1386   9.1386   9.7861   9.7861  10.9338

          k = 0.1667 0.3849 0.0000 (  5703 PWs)   bands (ev):

   -40.0927 -40.0606 -19.0885 -19.0877 -19.0588 -18.9654 -18.9007 -18.8851
     6.2279   8.3439   8.4190   8.7000   9.9483  10.2289  10.3575

          k = 0.1667 0.3849 0.0784 (  5699 PWs)   bands (ev):

   -40.0915 -40.0618 -19.1181 -19.0787 -19.0349 -18.9701 -18.9049 -18.8795
     6.2911   8.2250   8.4786   8.7454   9.9121  10.2527  10.3071

          k = 0.1667 0.3849 0.1568 (  5713 PWs)   bands (ev):

   -40.0880 -40.0653 -19.1385 -19.0927 -18.9965 -18.9710 -18.9134 -18.8738
     6.4760   7.9367   8.6237   8.8544   9.8162  10.0737  10.4327

          k = 0.1667 0.3849 0.2353 (  5707 PWs)   bands (ev):

   -40.0828 -40.0705 -19.1441 -19.1150 -18.9757 -18.9569 -18.9153 -18.8787
     6.7678   7.5499   8.8258   8.9801   9.6880   9.8306  10.6658

          k = 0.1667 0.3849-0.3137 (  5708 PWs)   bands (ev):

   -40.0767 -40.0767 -19.1349 -19.1349 -18.9619 -18.9619 -18.8960 -18.8960
     7.1398   7.1398   8.9948   8.9948   9.6572   9.6572  10.9749

          k = 0.1667 0.4811 0.0000 (  5719 PWs)   bands (ev):

   -40.0817 -40.0605 -19.1307 -19.0750 -19.0476 -18.9968 -18.9157 -18.9138
     7.0540   8.2454   8.2563   8.5331   9.8649  10.1070  10.4867

          k = 0.1667 0.4811 0.0784 (  5705 PWs)   bands (ev):

   -40.0809 -40.0613 -19.1412 -19.0916 -19.0297 -18.9914 -18.9248 -18.9007
     7.0892   8.1451   8.3475   8.6046   9.8371  10.0439  10.5052

          k = 0.1667 0.4811 0.1568 (  5704 PWs)   bands (ev):

   -40.0786 -40.0636 -19.1589 -19.1171 -19.0157 -18.9666 -18.9334 -18.8870
     7.1926   7.9879   8.5095   8.7651   9.7481   9.8695  10.5930

          k = 0.1667 0.4811 0.2353 (  5707 PWs)   bands (ev):

   -40.0751 -40.0670 -19.1677 -19.1435 -19.0010 -18.9644 -18.9182 -18.8835
     7.3563   7.7854   8.7383   8.9339   9.6189   9.6380  10.7804

          k = 0.1667 0.4811-0.3137 (  5704 PWs)   bands (ev):

   -40.0711 -40.0711 -19.1622 -19.1622 -18.9823 -18.9823 -18.8945 -18.8945
     7.5633   7.5633   8.9473   8.9473   9.5242   9.5242  11.0648

          k = 0.1667 0.5774 0.0000 (  5706 PWs)   bands (ev):

   -40.0767 -40.0613 -19.1462 -19.0793 -19.0269 -19.0102 -18.9301 -18.9211
     7.5566   8.0289   8.2285   8.4381   9.9089   9.9405  10.6150

          k = 0.1667 0.5774 0.0784 (  5700 PWs)   bands (ev):

   -40.0761 -40.0619 -19.1546 -19.0931 -19.0322 -18.9868 -18.9367 -18.9101
     7.5484   8.0160   8.3206   8.4703   9.8725   9.9050  10.6280

          k = 0.1667 0.5774 0.1568 (  5709 PWs)   bands (ev):

   -40.0745 -40.0636 -19.1697 -19.1230 -19.0263 -18.9500 -18.9497 -18.8940
     7.5549   7.9543   8.5519   8.5906   9.7660   9.7726  10.7057

          k = 0.1667 0.5774 0.2353 (  5704 PWs)   bands (ev):

   -40.0720 -40.0661 -19.1778 -19.1526 -19.0106 -18.9686 -18.9159 -18.8864
     7.6095   7.8405   8.7977   8.8353   9.5538   9.5942  10.8845

          k = 0.1667 0.5774-0.3137 (  5696 PWs)   bands (ev):

   -40.0690 -40.0690 -19.1723 -19.1723 -18.9900 -18.9900 -18.8936 -18.8936
     7.7125   7.7125   8.9777   8.9777   9.4320   9.4320  11.1539

          k = 0.2500 0.4330 0.0000 (  5702 PWs)   bands (ev):

   -40.0817 -40.0604 -19.1079 -19.0782 -19.0480 -18.9962 -18.9366 -18.9134
     7.0183   8.3093   8.4412   8.4818   9.7889  10.1170  10.4536

          k = 0.2500 0.4330 0.0784 (  5705 PWs)   bands (ev):

   -40.0809 -40.0612 -19.1100 -19.1063 -19.0157 -19.0064 -18.9390 -18.9028
     7.0651   8.2472   8.4783   8.5580   9.7729  10.0127  10.4638

          k = 0.2500 0.4330 0.1568 (  5713 PWs)   bands (ev):

   -40.0786 -40.0635 -19.1347 -19.1192 -19.0175 -18.9826 -18.9385 -18.8870
     7.2002   8.1095   8.5879   8.7165   9.7062   9.7692  10.5207

          k = 0.2500 0.4330 0.2353 (  5725 PWs)   bands (ev):

   -40.0751 -40.0670 -19.1491 -19.1354 -19.0137 -18.9837 -18.9153 -18.8817
     7.4070   7.9053   8.7580   8.8930   9.5116   9.5701  10.6800

          k = 0.2500 0.4330-0.3137 (  5704 PWs)   bands (ev):

   -40.0711 -40.0711 -19.1482 -19.1482 -18.9994 -18.9994 -18.8917 -18.8917
     7.6561   7.6561   8.9262   8.9262   9.4299   9.4299  10.9653

          k = 0.2500 0.5292 0.0000 (  5715 PWs)   bands (ev):

   -40.0733 -40.0624 -19.1231 -19.0670 -19.0309 -19.0117 -18.9594 -18.9426
     7.7095   8.2590   8.3110   8.3764   9.7631   9.8913  10.6776

          k = 0.2500 0.5292 0.0784 (  5716 PWs)   bands (ev):

   -40.0729 -40.0628 -19.1262 -19.0859 -19.0463 -18.9864 -18.9636 -18.9260
     7.7377   8.2317   8.3438   8.4651   9.7227   9.7962  10.6818

          k = 0.2500 0.5292 0.1568 (  5714 PWs)   bands (ev):

   -40.0717 -40.0640 -19.1385 -19.1130 -19.0560 -18.9855 -18.9388 -18.9017
     7.8158   8.1883   8.4678   8.6484   9.5467   9.6087  10.7171

          k = 0.2500 0.5292 0.2353 (  5712 PWs)   bands (ev):

   -40.0699 -40.0657 -19.1508 -19.1371 -19.0460 -19.0043 -18.9072 -18.8873
     7.9249   8.1285   8.6722   8.8862   9.2467   9.4057  10.8313

          k = 0.2500 0.5292-0.3137 (  5712 PWs)   bands (ev):

   -40.0678 -40.0678 -19.1511 -19.1511 -19.0262 -19.0262 -18.8888 -18.8888
     8.0379   8.0379   8.9375   8.9375   9.1555   9.1555  11.0609

          k = 0.3333 0.5774 0.0000 (  5724 PWs)   bands (ev):

   -40.0667 -40.0667 -19.1136 -19.0522 -19.0522 -18.9851 -18.9759 -18.9759
     8.1581   8.1581   8.2618   8.3474   9.7598   9.7598  10.7725

          k = 0.3333 0.5774 0.0784 (  5706 PWs)   bands (ev):

   -40.0667 -40.0667 -19.1088 -19.0737 -19.0737 -18.9901 -18.9541 -18.9541
     8.2039   8.2039   8.2808   8.3661   9.6823   9.6823  10.7712

          k = 0.3333 0.5774 0.1568 (  5697 PWs)   bands (ev):

   -40.0667 -40.0667 -19.1069 -19.1069 -19.0950 -19.0041 -18.9203 -18.9203
     8.3311   8.3342   8.3342   8.4090   9.4818   9.4818  10.7881

          k = 0.3333 0.5774 0.2353 (  5706 PWs)   bands (ev):

   -40.0667 -40.0667 -19.1309 -19.1309 -19.0743 -19.0251 -18.8957 -18.8957
     8.3934   8.4433   8.5220   8.5220   9.2318   9.2318  10.8745

          k = 0.3333 0.5774-0.3137 (  5736 PWs)   bands (ev):

   -40.0667 -40.0667 -19.1394 -19.1394 -19.0498 -19.0498 -18.8869 -18.8869
     8.4389   8.4389   8.6527   8.6527   9.0772   9.0772  11.0789

     the Fermi energy is     8.8144 ev

!    total energy              =    -306.87356078 Ry
     total all-electron energy =     -3050.014332 Ry
     estimated scf accuracy    <          7.7E-09 Ry
     smearing contrib. (-TS)   =      -0.00104015 Ry
     internal energy E=F+TS    =    -306.87252064 Ry

     The total energy is F=E-TS. E is the sum of the following terms:
     one-electron contribution =     -74.40740491 Ry
     hartree contribution      =      42.28520389 Ry
     xc contribution           =     -34.52747389 Ry
     ewald contribution        =    -126.46581261 Ry
     one-center paw contrib.   =    -113.75703311 Ry

     convergence has been achieved in   9 iterations

     Forces acting on atoms (cartesian axes, Ry/au):

     atom    1 type  1   force =    -0.00000000    0.00000000    0.00000000
     atom    2 type  1   force =     0.00000000   -0.00000000    0.00000000
     The non-local contrib.  to forces
     atom    1 type  1   force =     0.00000000   -0.00000000    0.00000000
     atom    2 type  1   force =     0.00000000   -0.00000000    0.00000000
     The ionic contribution  to forces
     atom    1 type  1   force =     0.00000000   -0.00000000    0.00000000
     atom    2 type  1   force =    -0.00000000    0.00000000    0.00000000
     The local contribution  to forces
     atom    1 type  1   force =     0.00000000    0.00000000    0.00000000
     atom    2 type  1   force =    -0.00000000    0.00000000    0.00000000
     The core correction contribution to forces
     atom    1 type  1   force =    -0.00000000   -0.00000000    0.00000000
     atom    2 type  1   force =     0.00000000   -0.00000000    0.00000000
     The Hubbard contrib.    to forces
     atom    1 type  1   force =     0.00000000    0.00000000    0.00000000
     atom    2 type  1   force =     0.00000000    0.00000000    0.00000000
     The SCF correction term to forces
     atom    1 type  1   force =    -0.00000000    0.00000000    0.00000000
     atom    2 type  1   force =     0.00000000   -0.00000000   -0.00000000

     Total force =     0.000000     Total SCF correction =     0.000000


     Computing stress (Cartesian axis) and pressure

          total   stress  (Ry/bohr**3)                   (kbar)     P=      -55.32
  -0.00033587   0.00000000  -0.00000000          -49.41        0.00       -0.00
   0.00000000  -0.00033587   0.00000000            0.00      -49.41        0.00
  -0.00000000   0.00000000  -0.00045642           -0.00        0.00      -67.14


     BFGS Geometry Optimization
     Energy error            =      0.0E+00 Ry
     Gradient error          =      1.6E-27 Ry/Bohr
     Cell gradient error     =      6.7E+01 kbar

     number of scf cycles    =   1
     number of bfgs steps    =   0

     enthalpy           new  =    -306.8735607846 Ry

     new trust radius        =       0.0419267032 bohr
     new conv_thr            =       0.0000000100 Ry

     new unit-cell volume =    328.09360 a.u.^3 (    48.61845 Ang^3 )
     density =      3.04631 g/cm^3

CELL_PARAMETERS (alat=  6.25310370)
   0.991603333   0.000000000  -0.000000000
  -0.495801666   0.858753677   0.000000000
  -0.000000000   0.000000000   1.575811532

ATOMIC_POSITIONS (crystal)
Sc           -0.0000000000        0.0000000000        0.0000000000
Sc            0.6666666667        0.3333333333        0.5000000000



     Writing config-only to output data dir sc_vcrelax.out/scandium.save/
     NEW-OLD atomic charge density approx. for the potential

     Check: negative core charge=   -0.000012
     extrapolated charge   21.36772, renormalised to   22.00000

     total cpu time spent up to now is      482.2 secs

     Self-consistent Calculation

     iteration #  1     ecut=   100.00 Ry     beta= 0.70
     Davidson diagonalization with overlap
     c_bands:  1 eigenvalues not converged
     c_bands:  1 eigenvalues not converged
     c_bands:  1 eigenvalues not converged
     c_bands:  1 eigenvalues not converged
     c_bands:  2 eigenvalues not converged
     c_bands:  1 eigenvalues not converged
     c_bands:  4 eigenvalues not converged
     c_bands:  2 eigenvalues not converged
     c_bands:  1 eigenvalues not converged
     c_bands:  3 eigenvalues not converged
     c_bands:  4 eigenvalues not converged
     c_bands:  1 eigenvalues not converged
     c_bands:  4 eigenvalues not converged
     c_bands:  4 eigenvalues not converged
     c_bands:  1 eigenvalues not converged
     c_bands:  1 eigenvalues not converged
     c_bands:  1 eigenvalues not converged
     c_bands:  2 eigenvalues not converged
     c_bands:  4 eigenvalues not converged
     c_bands:  4 eigenvalues not converged
     c_bands:  2 eigenvalues not converged
     c_bands:  1 eigenvalues not converged
     c_bands:  3 eigenvalues not converged
     c_bands:  3 eigenvalues not converged
     c_bands:  5 eigenvalues not converged
     c_bands:  5 eigenvalues not converged
     c_bands:  5 eigenvalues not converged
     c_bands:  2 eigenvalues not converged
     c_bands:  2 eigenvalues not converged
     c_bands:  3 eigenvalues not converged
     c_bands:  3 eigenvalues not converged
     c_bands:  2 eigenvalues not converged
     c_bands:  2 eigenvalues not converged
     c_bands:  3 eigenvalues not converged
     c_bands:  3 eigenvalues not converged
     c_bands:  4 eigenvalues not converged
     c_bands:  2 eigenvalues not converged
     c_bands:  2 eigenvalues not converged
     c_bands:  2 eigenvalues not converged
     c_bands:  4 eigenvalues not converged
     c_bands:  3 eigenvalues not converged
     c_bands:  4 eigenvalues not converged
     c_bands:  2 eigenvalues not converged
     c_bands:  2 eigenvalues not converged
     c_bands:  1 eigenvalues not converged
     c_bands:  5 eigenvalues not converged
     c_bands:  2 eigenvalues not converged
     c_bands:  1 eigenvalues not converged
     c_bands:  3 eigenvalues not converged
     ethr =  1.00E-06,  avg # of iterations = 19.4

     total cpu time spent up to now is      578.6 secs

     total energy              =    -306.76406739 Ry
     estimated scf accuracy    <       0.08119504 Ry

     iteration #  2     ecut=   100.00 Ry     beta= 0.70
     Davidson diagonalization with overlap
     ethr =  3.69E-04,  avg # of iterations =  6.9

     total cpu time spent up to now is      619.9 secs

     total energy              =    -306.87971000 Ry
     estimated scf accuracy    <       0.13562557 Ry

     iteration #  3     ecut=   100.00 Ry     beta= 0.70
     Davidson diagonalization with overlap
     ethr =  3.69E-04,  avg # of iterations =  1.2

     total cpu time spent up to now is      638.8 secs

     total energy              =    -306.87410571 Ry
     estimated scf accuracy    <       0.04127453 Ry

     iteration #  4     ecut=   100.00 Ry     beta= 0.70
     Davidson diagonalization with overlap
     ethr =  1.88E-04,  avg # of iterations =  2.7

     total cpu time spent up to now is      660.5 secs

     total energy              =    -306.87320442 Ry
     estimated scf accuracy    <       0.01711893 Ry

     iteration #  5     ecut=   100.00 Ry     beta= 0.70
     Davidson diagonalization with overlap
     ethr =  7.78E-05,  avg # of iterations =  2.9

     total cpu time spent up to now is      682.2 secs

     total energy              =    -306.87516002 Ry
     estimated scf accuracy    <       0.00721533 Ry

     iteration #  6     ecut=   100.00 Ry     beta= 0.70
     Davidson diagonalization with overlap
     ethr =  3.28E-05,  avg # of iterations =  4.3

     total cpu time spent up to now is      706.7 secs

     total energy              =    -306.87895697 Ry
     estimated scf accuracy    <       0.00428614 Ry

     iteration #  7     ecut=   100.00 Ry     beta= 0.70
     Davidson diagonalization with overlap
     ethr =  1.95E-05,  avg # of iterations =  2.1

     total cpu time spent up to now is      727.3 secs

     total energy              =    -306.88025268 Ry
     estimated scf accuracy    <       0.00736336 Ry

     iteration #  8     ecut=   100.00 Ry     beta= 0.70
     Davidson diagonalization with overlap
     ethr =  1.95E-05,  avg # of iterations =  1.7

     total cpu time spent up to now is      747.8 secs

     total energy              =    -306.87790558 Ry
     estimated scf accuracy    <       0.00940515 Ry

     iteration #  9     ecut=   100.00 Ry     beta= 0.70
     Davidson diagonalization with overlap
     ethr =  1.95E-05,  avg # of iterations =  1.4

     total cpu time spent up to now is      767.1 secs

     total energy              =    -306.87809466 Ry
     estimated scf accuracy    <       0.00530541 Ry

     iteration # 10     ecut=   100.00 Ry     beta= 0.70
     Davidson diagonalization with overlap
     ethr =  1.95E-05,  avg # of iterations =  1.1

     total cpu time spent up to now is      786.2 secs

     total energy              =    -306.88114831 Ry
     estimated scf accuracy    <       0.00518742 Ry

     iteration # 11     ecut=   100.00 Ry     beta= 0.70
     Davidson diagonalization with overlap
     ethr =  1.95E-05,  avg # of iterations =  1.0

     total cpu time spent up to now is      805.0 secs

     total energy              =    -306.92954286 Ry
     estimated scf accuracy    <       0.01043553 Ry

     iteration # 12     ecut=   100.00 Ry     beta= 0.70
     Davidson diagonalization with overlap
     ethr =  1.95E-05,  avg # of iterations = 10.5

     total cpu time spent up to now is      863.8 secs

     total energy              =    -306.82124313 Ry
     estimated scf accuracy    <       0.18120424 Ry

     iteration # 13     ecut=   100.00 Ry     beta= 0.70
     Davidson diagonalization with overlap
     c_bands:  1 eigenvalues not converged
     c_bands:  1 eigenvalues not converged
     c_bands:  3 eigenvalues not converged
     c_bands:  2 eigenvalues not converged
     c_bands:  2 eigenvalues not converged
     c_bands:  1 eigenvalues not converged
     c_bands:  3 eigenvalues not converged
     c_bands:  2 eigenvalues not converged
     c_bands:  1 eigenvalues not converged
     c_bands:  2 eigenvalues not converged
     c_bands:  3 eigenvalues not converged
     c_bands:  3 eigenvalues not converged
     c_bands:  1 eigenvalues not converged
     c_bands:  3 eigenvalues not converged
     c_bands:  1 eigenvalues not converged
     c_bands:  2 eigenvalues not converged
     c_bands:  1 eigenvalues not converged
     c_bands:  2 eigenvalues not converged
     c_bands:  4 eigenvalues not converged
     c_bands:  2 eigenvalues not converged
     c_bands:  2 eigenvalues not converged
     c_bands:  3 eigenvalues not converged
     c_bands:  4 eigenvalues not converged
     c_bands:  2 eigenvalues not converged
     c_bands:  2 eigenvalues not converged
     c_bands:  1 eigenvalues not converged
     c_bands:  2 eigenvalues not converged
     c_bands:  4 eigenvalues not converged
     c_bands:  2 eigenvalues not converged
     c_bands:  1 eigenvalues not converged
     c_bands:  5 eigenvalues not converged
     c_bands:  3 eigenvalues not converged
     c_bands:  2 eigenvalues not converged
     c_bands:  5 eigenvalues not converged
     c_bands:  3 eigenvalues not converged
     c_bands:  1 eigenvalues not converged
     ethr =  1.95E-05,  avg # of iterations = 19.0

     total cpu time spent up to now is      964.7 secs

     total energy              =    -306.77442234 Ry
     estimated scf accuracy    <       1.00621312 Ry

     iteration # 14     ecut=   100.00 Ry     beta= 0.70
     Davidson diagonalization with overlap
     c_bands:  3 eigenvalues not converged
     c_bands:  2 eigenvalues not converged
     c_bands:  1 eigenvalues not converged
     ethr =  1.95E-05,  avg # of iterations = 15.1

     total cpu time spent up to now is     1038.3 secs

     total energy              =    -306.86233769 Ry
     estimated scf accuracy    <       0.06200438 Ry

     iteration # 15     ecut=   100.00 Ry     beta= 0.70
     Davidson diagonalization with overlap
     ethr =  1.95E-05,  avg # of iterations =  7.8

     total cpu time spent up to now is     1082.9 secs

     total energy              =    -306.87636690 Ry
     estimated scf accuracy    <       0.00027950 Ry

     iteration # 16     ecut=   100.00 Ry     beta= 0.70
     Davidson diagonalization with overlap
     ethr =  1.27E-06,  avg # of iterations =  9.8

     total cpu time spent up to now is     1122.5 secs

     total energy              =    -306.87671181 Ry
     estimated scf accuracy    <       0.00032124 Ry

     iteration # 17     ecut=   100.00 Ry     beta= 0.70
     Davidson diagonalization with overlap
     ethr =  1.27E-06,  avg # of iterations =  1.8

     total cpu time spent up to now is     1142.4 secs

     total energy              =    -306.87665951 Ry
     estimated scf accuracy    <       0.00009440 Ry

     iteration # 18     ecut=   100.00 Ry     beta= 0.70
     Davidson diagonalization with overlap
     ethr =  4.29E-07,  avg # of iterations =  9.3

     total cpu time spent up to now is     1182.5 secs

     total energy              =    -306.87690757 Ry
     estimated scf accuracy    <       0.00038039 Ry

     iteration # 19     ecut=   100.00 Ry     beta= 0.70
     Davidson diagonalization with overlap
     ethr =  4.29E-07,  avg # of iterations =  2.0

     total cpu time spent up to now is     1203.7 secs

     total energy              =    -306.87688381 Ry
     estimated scf accuracy    <       0.00037339 Ry

     iteration # 20     ecut=   100.00 Ry     beta= 0.70
     Davidson diagonalization with overlap
     ethr =  4.29E-07,  avg # of iterations =  1.1

     total cpu time spent up to now is     1222.4 secs

     total energy              =    -306.87676111 Ry
     estimated scf accuracy    <       0.00032790 Ry

     iteration # 21     ecut=   100.00 Ry     beta= 0.70
     Davidson diagonalization with overlap
     ethr =  4.29E-07,  avg # of iterations =  2.3

     total cpu time spent up to now is     1246.1 secs

     total energy              =    -306.87671902 Ry
     estimated scf accuracy    <       0.00011780 Ry

     iteration # 22     ecut=   100.00 Ry     beta= 0.70
     Davidson diagonalization with overlap
     ethr =  4.29E-07,  avg # of iterations =  9.2

     total cpu time spent up to now is     1285.3 secs

     total energy              =    -306.87637295 Ry
     estimated scf accuracy    <       0.00098405 Ry

     iteration # 23     ecut=   100.00 Ry     beta= 0.70
     Davidson diagonalization with overlap
     ethr =  4.29E-07,  avg # of iterations = 12.6

     total cpu time spent up to now is     1344.1 secs

     total energy              =    -306.87644265 Ry
     estimated scf accuracy    <       0.00300250 Ry

     iteration # 24     ecut=   100.00 Ry     beta= 0.70
     Davidson diagonalization with overlap
     ethr =  4.29E-07,  avg # of iterations =  8.1

     total cpu time spent up to now is     1379.9 secs

     total energy              =    -306.87668392 Ry
     estimated scf accuracy    <       0.00016843 Ry

     iteration # 25     ecut=   100.00 Ry     beta= 0.70
     Davidson diagonalization with overlap
     ethr =  4.29E-07,  avg # of iterations =  6.0

     total cpu time spent up to now is     1412.3 secs

     total energy              =    -306.87674849 Ry
     estimated scf accuracy    <       0.00003852 Ry

     iteration # 26     ecut=   100.00 Ry     beta= 0.70
     Davidson diagonalization with overlap
     ethr =  1.75E-07,  avg # of iterations =  4.1

     total cpu time spent up to now is     1438.2 secs

     total energy              =    -306.87675938 Ry
     estimated scf accuracy    <       0.00000019 Ry

     iteration # 27     ecut=   100.00 Ry     beta= 0.70
     Davidson diagonalization with overlap
     c_bands:  1 eigenvalues not converged
     c_bands:  1 eigenvalues not converged
     c_bands:  2 eigenvalues not converged
     c_bands:  3 eigenvalues not converged
     c_bands:  1 eigenvalues not converged
     c_bands:  1 eigenvalues not converged
     c_bands:  1 eigenvalues not converged
     c_bands:  1 eigenvalues not converged
     c_bands:  2 eigenvalues not converged
     c_bands:  1 eigenvalues not converged
     c_bands:  1 eigenvalues not converged
     c_bands:  1 eigenvalues not converged
     c_bands:  2 eigenvalues not converged
     c_bands:  2 eigenvalues not converged
     c_bands:  1 eigenvalues not converged
     c_bands:  2 eigenvalues not converged
     c_bands:  1 eigenvalues not converged
     c_bands:  1 eigenvalues not converged
     c_bands:  1 eigenvalues not converged
     ethr =  8.86E-10,  avg # of iterations = 17.1

     total cpu time spent up to now is     1517.4 secs

     End of self-consistent calculation

          k = 0.0000 0.0000 0.0000 (  5683 PWs)   bands (ev):

   -39.7468 -39.6732 -18.8578 -18.4889 -18.4889 -18.4240 -18.4240 -18.4047
     4.0218   7.4304   9.6988  10.7043  10.7043  10.8392  11.1296

          k = 0.0000-0.0000 0.0793 (  5677 PWs)   bands (ev):

   -39.7440 -39.6761 -18.8411 -18.4865 -18.4865 -18.4265 -18.4265 -18.4225
     4.1261   7.2859   9.6542  10.6585  10.6586  10.7710  11.0705

          k = 0.0000-0.0000 0.1586 (  5666 PWs)   bands (ev):

   -39.7361 -39.6841 -18.7934 -18.4794 -18.4794 -18.4731 -18.4336 -18.4336
     4.4318   6.8549   9.6372  10.5821  10.5920  10.5921  10.9274

          k = 0.0000-0.0000 0.2380 (  5690 PWs)   bands (ev):

   -39.7242 -39.6961 -18.7214 -18.5481 -18.4690 -18.4690 -18.4441 -18.4441
     4.9161   6.2220   9.7643  10.3067  10.5791  10.5792  10.7663

          k =-0.0000 0.0000-0.3173 (  5672 PWs)   bands (ev):

   -39.7101 -39.7101 -18.6353 -18.6353 -18.4565 -18.4565 -18.4565 -18.4565
     5.5367   5.5367  10.0111  10.0112  10.6401  10.6401  10.6401

          k =-0.0000 0.0970-0.0000 (  5689 PWs)   bands (ev):

   -39.7430 -39.6717 -18.8480 -18.5089 -18.4956 -18.4449 -18.4268 -18.4088
     4.1767   7.5628   9.5629  10.4273  10.8177  11.0055  11.0762

          k =-0.0000 0.0970 0.0793 (  5671 PWs)   bands (ev):

   -39.7403 -39.6745 -18.8324 -18.5059 -18.4930 -18.4539 -18.4294 -18.4195
     4.2794   7.4183   9.5203  10.4226  10.7594  10.8763  10.9996

          k =-0.0000 0.0970 0.1586 (  5677 PWs)   bands (ev):

   -39.7327 -39.6823 -18.7876 -18.4982 -18.4909 -18.4855 -18.4377 -18.4369
     4.5806   6.9852   9.5186  10.4277  10.5936  10.6814  11.0148

          k =-0.0000 0.0970 0.2380 (  5667 PWs)   bands (ev):

   -39.7211 -39.6939 -18.7201 -18.5589 -18.4846 -18.4744 -18.4535 -18.4481
     5.0582   6.3523   9.6684  10.2674  10.4756  10.6656  10.7348

          k =-0.0000 0.0970-0.3173 (  5650 PWs)   bands (ev):

   -39.7075 -39.7075 -18.6397 -18.6397 -18.4694 -18.4694 -18.4613 -18.4613
     5.6718   5.6718   9.9397   9.9397  10.5810  10.5814  10.7267

          k =-0.0000 0.1941-0.0000 (  5693 PWs)   bands (ev):

   -39.7327 -39.6679 -18.8202 -18.5637 -18.5132 -18.5008 -18.4348 -18.4213
     4.6256   7.9164   9.2504   9.9992  10.7714  11.1463  11.1734

          k =-0.0000 0.1941 0.0793 (  5683 PWs)   bands (ev):

   -39.7302 -39.6703 -18.8080 -18.5591 -18.5116 -18.5103 -18.4378 -18.4282
     4.7231   7.7738   9.2195  10.0190  10.7624  10.9085  10.9856

          k =-0.0000 0.1941 0.1586 (  5681 PWs)   bands (ev):

   -39.7232 -39.6774 -18.7731 -18.5522 -18.5373 -18.5018 -18.4464 -18.4461
     5.0093   7.3374   9.2600  10.0770  10.5279  10.7727  10.8911

          k =-0.0000 0.1941 0.2380 (  5680 PWs)   bands (ev):

   -39.7127 -39.6879 -18.7207 -18.5975 -18.5221 -18.4891 -18.4704 -18.4591
     5.4644   6.7112   9.4563  10.0656  10.3042  10.6172  10.8850

          k =-0.0000 0.1941-0.3173 (  5686 PWs)   bands (ev):

   -39.7004 -39.7004 -18.6588 -18.6588 -18.4969 -18.4969 -18.4742 -18.4742
     6.0520   6.0520   9.7579   9.7579  10.4273  10.4274  10.9604

          k =-0.0000 0.2911-0.0000 (  5673 PWs)   bands (ev):

   -39.7178 -39.6631 -18.7784 -18.6394 -18.5748 -18.5364 -18.4466 -18.4422
     5.3201   8.3241   8.9140   9.5632  10.5501  10.8307  10.9191

          k =-0.0000 0.2911 0.0793 (  5688 PWs)   bands (ev):

   -39.7158 -39.6652 -18.7745 -18.6298 -18.5852 -18.5330 -18.4501 -18.4456
     5.4071   8.1902   8.9106   9.5950  10.5175  10.7743  10.9329

          k =-0.0000 0.2911 0.1586 (  5690 PWs)   bands (ev):

   -39.7099 -39.6712 -18.7615 -18.6256 -18.5908 -18.5234 -18.4599 -18.4581
     5.6626   7.7690   9.0160   9.6742  10.3628  10.6639  10.9845

          k =-0.0000 0.2911 0.2380 (  5686 PWs)   bands (ev):

   -39.7010 -39.6801 -18.7371 -18.6619 -18.5559 -18.5089 -18.4820 -18.4745
     6.0691   7.1899   9.2455   9.7127  10.1996  10.4864  11.0899

          k =-0.0000 0.2911-0.3173 (  5686 PWs)   bands (ev):

   -39.6906 -39.6906 -18.7024 -18.7024 -18.5162 -18.5162 -18.4917 -18.4917
     6.5952   6.5952   9.5258   9.5258  10.2791  10.2791  11.2502

          k =-0.0000 0.3882-0.0000 (  5687 PWs)   bands (ev):

   -39.7018 -39.6596 -18.7293 -18.7158 -18.6464 -18.5589 -18.4703 -18.4590
     6.1708   8.4723   8.6398   9.2301  10.5824  10.5837  10.6987

          k =-0.0000 0.3882 0.0793 (  5689 PWs)   bands (ev):

   -39.7002 -39.6612 -18.7576 -18.6824 -18.6517 -18.5551 -18.4700 -18.4628
     6.2380   8.3447   8.6983   9.2728  10.4264  10.6707  10.7503

          k =-0.0000 0.3882 0.1586 (  5699 PWs)   bands (ev):

   -39.6956 -39.6658 -18.7759 -18.6960 -18.6155 -18.5444 -18.4741 -18.4738
     6.4350   8.0192   8.8603   9.3637  10.2742  10.6188  10.9016

          k =-0.0000 0.3882 0.2380 (  5710 PWs)   bands (ev):

   -39.6888 -39.6726 -18.7763 -18.7301 -18.5649 -18.5283 -18.4902 -18.4900
     6.7467   7.5914   9.0921   9.4186  10.1842  10.4421  11.1416

          k =-0.0000 0.3882-0.3173 (  5704 PWs)   bands (ev):

   -39.6807 -39.6807 -18.7596 -18.7596 -18.5211 -18.5211 -18.5092 -18.5092
     7.1463   7.1463   9.3191   9.3191  10.2499  10.2499  11.4492

          k =-0.0000 0.4852-0.0000 (  5716 PWs)   bands (ev):

   -39.6885 -39.6585 -18.7719 -18.6975 -18.6836 -18.5749 -18.5005 -18.4683
     7.0248   8.2991   8.4658   8.9883  10.4142  10.5522  10.8044

          k =-0.0000 0.4852 0.0793 (  5702 PWs)   bands (ev):

   -39.6874 -39.6597 -18.7881 -18.7134 -18.6554 -18.5709 -18.4963 -18.4724
     7.0536   8.2089   8.5664   9.0156  10.4223  10.6169  10.7556

          k =-0.0000 0.4852 0.1586 (  5699 PWs)   bands (ev):

   -39.6841 -39.6629 -18.8092 -18.7454 -18.6061 -18.5595 -18.4916 -18.4841
     7.1436   8.0180   8.7681   9.1122  10.4120  10.6287  10.8075

          k =-0.0000 0.4852 0.2380 (  5709 PWs)   bands (ev):

   -39.6792 -39.6678 -18.8162 -18.7799 -18.5578 -18.5423 -18.5015 -18.4977
     7.2994   7.7697   9.0102   9.2273  10.3502  10.4788  11.1135

          k =-0.0000 0.4852-0.3173 (  5706 PWs)   bands (ev):

   -39.6735 -39.6735 -18.8057 -18.8057 -18.5219 -18.5219 -18.5199 -18.5199
     7.5158   7.5158   9.2053   9.2053  10.3558  10.3559  11.5145

          k = 0.0000-0.5822 0.0000 (  5712 PWs)   bands (ev):

   -39.6829 -39.6589 -18.7924 -18.7159 -18.6622 -18.5808 -18.5162 -18.4718
     7.5343   8.0681   8.4065   8.8755  10.3540  10.5011  10.9074

          k = 0.0000-0.5822 0.0793 (  5716 PWs)   bands (ev):

   -39.6820 -39.6598 -18.8052 -18.7304 -18.6407 -18.5767 -18.5101 -18.4760
     7.5058   8.0480   8.5295   8.8653  10.4153  10.5694  10.8326

          k = 0.0000-0.5822 0.1586 (  5702 PWs)   bands (ev):

   -39.6793 -39.6624 -18.8246 -18.7633 -18.5967 -18.5650 -18.5007 -18.4879
     7.4791   7.9577   8.8139   8.9064  10.5222  10.6444  10.7709

          k = 0.0000-0.5822 0.2380 (  5698 PWs)   bands (ev):

   -39.6754 -39.6663 -18.8323 -18.7980 -18.5524 -18.5474 -18.5057 -18.5016
     7.5172   7.7968   9.0467   9.0962  10.4572  10.5332  11.0955

          k = 0.0000-0.5822-0.3173 (  5732 PWs)   bands (ev):

   -39.6709 -39.6709 -18.8230 -18.8230 -18.5266 -18.5266 -18.5189 -18.5189
     7.6313   7.6313   9.1763   9.1763  10.4384  10.4384  11.5239

          k = 0.0840 0.1456 0.0000 (  5696 PWs)   bands (ev):

   -39.7360 -39.6691 -18.8292 -18.5424 -18.5165 -18.4757 -18.4350 -18.4171
     4.4789   7.8082   9.3437  10.1150  10.8529  11.0555  11.1228

          k = 0.0840 0.1456 0.0793 (  5681 PWs)   bands (ev):

   -39.7335 -39.6716 -18.8158 -18.5383 -18.5158 -18.4847 -18.4378 -18.4244
     4.5782   7.6646   9.3083  10.1303  10.8620  10.8754  10.9420

          k = 0.0840 0.1456 0.1586 (  5692 PWs)   bands (ev):

   -39.7262 -39.6789 -18.7773 -18.5312 -18.5267 -18.4961 -18.4459 -18.4418
     4.8697   7.2283   9.3347  10.1794  10.5553  10.7977  10.8475

          k = 0.0840 0.1456 0.2380 (  5671 PWs)   bands (ev):

   -39.7154 -39.6898 -18.7195 -18.5837 -18.5092 -18.4885 -18.4624 -18.4578
     5.3329   6.5981   9.5186  10.1462  10.3366  10.6447  10.8307

          k = 0.0840 0.1456-0.3173 (  5672 PWs)   bands (ev):

   -39.7026 -39.7026 -18.6512 -18.6512 -18.4895 -18.4895 -18.4703 -18.4703
     5.9302   5.9302   9.8162   9.8162  10.4674  10.4675  10.8890

          k = 0.0840 0.2426-0.0000 (  5684 PWs)   bands (ev):

   -39.7234 -39.6648 -18.7943 -18.6025 -18.5654 -18.5133 -18.4489 -18.4339
     5.0528   8.2095   9.0392   9.6896  10.6198  10.8152  11.1184

          k = 0.0840 0.2426 0.0793 (  5687 PWs)   bands (ev):

   -39.7211 -39.6670 -18.7863 -18.5959 -18.5697 -18.5171 -18.4524 -18.4374
     5.1446   8.0709   9.0201   9.7182  10.6263  10.7423  11.0368

          k = 0.0840 0.2426 0.1586 (  5690 PWs)   bands (ev):

   -39.7148 -39.6734 -18.7631 -18.5973 -18.5703 -18.5181 -18.4621 -18.4494
     5.4139   7.6353   9.0988   9.7963  10.4370  10.6683  10.9834

          k = 0.0840 0.2426 0.2380 (  5700 PWs)   bands (ev):

   -39.7053 -39.6829 -18.7269 -18.6356 -18.5428 -18.5105 -18.4767 -18.4689
     5.8428   7.0265   9.3215   9.8417  10.2176  10.4997  11.0379

          k = 0.0840 0.2426-0.3173 (  5700 PWs)   bands (ev):

   -39.6941 -39.6941 -18.6823 -18.6823 -18.5139 -18.5139 -18.4848 -18.4848
     6.3984   6.3984   9.6193   9.6193  10.2955  10.2955  11.1486

          k = 0.0840 0.3396-0.0000 (  5687 PWs)   bands (ev):

   -39.7079 -39.6607 -18.7485 -18.6771 -18.6245 -18.5481 -18.4639 -18.4587
     5.8333   8.5237   8.7584   9.3080  10.5191  10.5555  10.8705

          k = 0.0840 0.3396 0.0793 (  5693 PWs)   bands (ev):

   -39.7061 -39.6625 -18.7559 -18.6621 -18.6285 -18.5481 -18.4693 -18.4571
     5.9108   8.3915   8.7862   9.3473  10.4151  10.6376  10.8492

          k = 0.0840 0.3396 0.1586 (  5696 PWs)   bands (ev):

   -39.7010 -39.6676 -18.7617 -18.6685 -18.6063 -18.5430 -18.4811 -18.4610
     6.1382   8.0027   8.9311   9.4409  10.2661  10.5881  10.9190

          k = 0.0840 0.3396 0.2380 (  5702 PWs)   bands (ev):

   -39.6933 -39.6753 -18.7540 -18.7006 -18.5643 -18.5308 -18.4965 -18.4758
     6.4994   7.4902   9.1639   9.5160  10.1285  10.3854  11.1164

          k = 0.0840 0.3396-0.3173 (  5706 PWs)   bands (ev):

   -39.6843 -39.6843 -18.7322 -18.7322 -18.5317 -18.5317 -18.4972 -18.4972
     6.9653   6.9653   9.4093   9.4093  10.1770  10.1770  11.3630

          k = 0.0840 0.4367-0.0000 (  5710 PWs)   bands (ev):

   -39.6930 -39.6586 -18.7432 -18.6998 -18.6763 -18.5751 -18.4892 -18.4767
     6.7049   8.4834   8.5545   9.0512  10.3898  10.6301  10.6976

          k = 0.0840 0.4367 0.0793 (  5701 PWs)   bands (ev):

   -39.6917 -39.6599 -18.7651 -18.6973 -18.6589 -18.5723 -18.4901 -18.4763
     6.7561   8.3613   8.6428   9.1028  10.3411  10.6199  10.7317

          k = 0.0840 0.4367 0.1586 (  5695 PWs)   bands (ev):

   -39.6879 -39.6636 -18.7875 -18.7241 -18.6129 -18.5608 -18.4996 -18.4749
     6.9066   8.1124   8.8176   9.2195  10.2371  10.5173  10.8791

          k = 0.0840 0.4367 0.2380 (  5711 PWs)   bands (ev):

   -39.6824 -39.6692 -18.7936 -18.7566 -18.5728 -18.5402 -18.5140 -18.4822
     7.1452   7.7902   9.0530   9.3171  10.1470  10.3268  11.1366

          k = 0.0840 0.4367-0.3173 (  5718 PWs)   bands (ev):

   -39.6758 -39.6758 -18.7822 -18.7822 -18.5454 -18.5454 -18.5020 -18.5020
     7.4513   7.4513   9.2652   9.2652  10.1657  10.1657  11.4743

          k = 0.0840 0.5337-0.0000 (  5708 PWs)   bands (ev):

   -39.6829 -39.6588 -18.7813 -18.7063 -18.6626 -18.5899 -18.5159 -18.4842
     7.4606   8.2322   8.4491   8.8706  10.3329  10.4629  10.9017

          k = 0.0840 0.5337 0.0793 (  5707 PWs)   bands (ev):

   -39.6820 -39.6598 -18.7941 -18.7214 -18.6428 -18.5838 -18.5121 -18.4857
     7.4598   8.1836   8.5598   8.8877  10.3521  10.4740  10.8837

          k = 0.0840 0.5337 0.1586 (  5700 PWs)   bands (ev):

   -39.6794 -39.6624 -18.8135 -18.7541 -18.6082 -18.5635 -18.5145 -18.4852
     7.4813   8.0616   8.7923   8.9916  10.3533  10.4265  10.9469

          k = 0.0840 0.5337 0.2380 (  5704 PWs)   bands (ev):

   -39.6755 -39.6663 -18.8214 -18.7883 -18.5789 -18.5358 -18.5265 -18.4873
     7.5587   7.8826   9.0392   9.1772  10.2334  10.3260  11.1938

          k = 0.0840 0.5337-0.3173 (  5708 PWs)   bands (ev):

   -39.6709 -39.6709 -18.8127 -18.8127 -18.5539 -18.5539 -18.5024 -18.5024
     7.6995   7.6995   9.2192   9.2192  10.2067  10.2067  11.5571

          k = 0.1681 0.2911 0.0000 (  5694 PWs)   bands (ev):

   -39.7100 -39.6611 -18.7552 -18.6438 -18.6358 -18.5353 -18.4746 -18.4548
     5.7185   8.5664   8.8179   9.3066  10.5055  10.5078  10.9645

          k = 0.1681 0.2911 0.0793 (  5692 PWs)   bands (ev):

   -39.7082 -39.6630 -18.7571 -18.6404 -18.6292 -18.5413 -18.4780 -18.4538
     5.7996   8.4305   8.8315   9.3417  10.4559  10.5582  10.9055

          k = 0.1681 0.2911 0.1586 (  5707 PWs)   bands (ev):

   -39.7029 -39.6683 -18.7559 -18.6577 -18.5948 -18.5478 -18.4871 -18.4571
     6.0376   8.0109   8.9692   9.4385  10.3057  10.5472  10.8935

          k = 0.1681 0.2911 0.2380 (  5711 PWs)   bands (ev):

   -39.6950 -39.6763 -18.7435 -18.6874 -18.5568 -18.5442 -18.4975 -18.4714
     6.4162   7.4621   9.2030   9.5408  10.1193  10.3406  11.0736

          k = 0.1681 0.2911-0.3173 (  5704 PWs)   bands (ev):

   -39.6856 -39.6856 -18.7191 -18.7191 -18.5385 -18.5385 -18.4930 -18.4930
     6.9064   6.9064   9.4545   9.4545  10.1296  10.1296  11.3054

          k = 0.1681 0.3882-0.0000 (  5703 PWs)   bands (ev):

   -39.6955 -39.6587 -18.7085 -18.7052 -18.6728 -18.5710 -18.4989 -18.4833
     6.5407   8.6466   8.7165   9.0063  10.2897  10.6014  10.7182

          k = 0.1681 0.3882 0.0793 (  5699 PWs)   bands (ev):

   -39.6941 -39.6601 -18.7402 -18.6956 -18.6471 -18.5765 -18.5037 -18.4766
     6.6041   8.5310   8.7764   9.0540  10.2551  10.6223  10.6653

          k = 0.1681 0.3882 0.1586 (  5713 PWs)   bands (ev):

   -39.6901 -39.6641 -18.7629 -18.7111 -18.6050 -18.5775 -18.5133 -18.4697
     6.7894   8.2470   8.9265   9.1682  10.1594  10.4295  10.7961

          k = 0.1681 0.3882 0.2380 (  5707 PWs)   bands (ev):

   -39.6841 -39.6701 -18.7689 -18.7363 -18.5825 -18.5612 -18.5155 -18.4748
     7.0817   7.8629   9.1374   9.2997  10.0281  10.1766  11.0331

          k = 0.1681 0.3882-0.3173 (  5708 PWs)   bands (ev):

   -39.6771 -39.6771 -18.7586 -18.7586 -18.5670 -18.5670 -18.4940 -18.4940
     7.4537   7.4537   9.3148   9.3148   9.9960   9.9960  11.3516

          k = 0.1681 0.4852-0.0000 (  5719 PWs)   bands (ev):

   -39.6830 -39.6588 -18.7524 -18.6901 -18.6634 -18.6056 -18.5153 -18.5151
     7.3703   8.5356   8.5443   8.8493  10.2089  10.4611  10.8673

          k = 0.1681 0.4852 0.0793 (  5705 PWs)   bands (ev):

   -39.6821 -39.6597 -18.7644 -18.7091 -18.6425 -18.5999 -18.5257 -18.4999
     7.4032   8.4377   8.6387   8.9213  10.1839  10.3958  10.8830

          k = 0.1681 0.4852 0.1586 (  5704 PWs)   bands (ev):

   -39.6794 -39.6623 -18.7845 -18.7377 -18.6268 -18.5721 -18.5352 -18.4843
     7.5012   8.2833   8.8091   9.0884  10.0979  10.2161  10.9672

          k = 0.1681 0.4852 0.2380 (  5707 PWs)   bands (ev):

   -39.6755 -39.6662 -18.7944 -18.7673 -18.6104 -18.5694 -18.5185 -18.4801
     7.6590   8.0820   9.0511   9.2671   9.9633   9.9791  11.1562

          k = 0.1681 0.4852-0.3173 (  5704 PWs)   bands (ev):

   -39.6709 -39.6709 -18.7883 -18.7883 -18.5894 -18.5894 -18.4921 -18.4921
     7.8618   7.8618   9.2770   9.2770   9.8628   9.8628  11.4486

          k = 0.1681 0.5822-0.0000 (  5706 PWs)   bands (ev):

   -39.6774 -39.6598 -18.7694 -18.6944 -18.6404 -18.6205 -18.5332 -18.5211
     7.8667   8.3276   8.5109   8.7550  10.2689  10.2777  10.9994

          k = 0.1681 0.5822 0.0793 (  5700 PWs)   bands (ev):

   -39.6767 -39.6605 -18.7789 -18.7102 -18.6456 -18.5949 -18.5391 -18.5100
     7.8511   8.3171   8.6143   8.7832  10.2334  10.2433  11.0098

          k = 0.1681 0.5822 0.1586 (  5709 PWs)   bands (ev):

   -39.6748 -39.6624 -18.7962 -18.7440 -18.6387 -18.5536 -18.5533 -18.4919
     7.8469   8.2558   8.8673   8.9003  10.1106  10.1280  11.0843

          k = 0.1681 0.5822 0.2380 (  5704 PWs)   bands (ev):

   -39.6719 -39.6652 -18.8053 -18.7772 -18.6209 -18.5740 -18.5160 -18.4833
     7.8967   8.1360   9.1139   9.1713   9.8859   9.9521  11.2652

          k = 0.1681 0.5822-0.3173 (  5696 PWs)   bands (ev):

   -39.6686 -39.6686 -18.7992 -18.7992 -18.5978 -18.5978 -18.4911 -18.4911
     8.0016   8.0016   9.3125   9.3125   9.7718   9.7718  11.5427

          k = 0.2521 0.4367 0.0000 (  5702 PWs)   bands (ev):

   -39.6831 -39.6587 -18.7276 -18.6941 -18.6637 -18.6045 -18.5381 -18.5147
     7.3380   8.5985   8.7404   8.7865  10.1278  10.4741  10.8331

          k = 0.2521 0.4367 0.0793 (  5705 PWs)   bands (ev):

   -39.6821 -39.6596 -18.7298 -18.7264 -18.6266 -18.6162 -18.5409 -18.5024
     7.3842   8.5371   8.7788   8.8670  10.1131  10.3658  10.8416

          k = 0.2521 0.4367 0.1586 (  5713 PWs)   bands (ev):

   -39.6795 -39.6623 -18.7582 -18.7402 -18.6288 -18.5892 -18.5407 -18.4844
     7.5171   8.4032   8.8928   9.0350  10.0482  10.1129  10.8948

          k = 0.2521 0.4367 0.2380 (  5725 PWs)   bands (ev):

   -39.6755 -39.6662 -18.7742 -18.7586 -18.6243 -18.5904 -18.5152 -18.4781
     7.7200   8.2059   9.0713   9.2211   9.8440   9.9097  11.0537

          k = 0.2521 0.4367-0.3173 (  5704 PWs)   bands (ev):

   -39.6709 -39.6709 -18.7731 -18.7731 -18.6081 -18.6081 -18.4890 -18.4890
     7.9637   7.9637   9.2519   9.2519   9.7615   9.7615  11.3461

          k = 0.2521 0.5337-0.0000 (  5715 PWs)   bands (ev):

   -39.6736 -39.6610 -18.7443 -18.6816 -18.6426 -18.6236 -18.5628 -18.5471
     8.0269   8.5632   8.5912   8.6847  10.1047  10.2436  11.0637

          k = 0.2521 0.5337 0.0793 (  5716 PWs)   bands (ev):

   -39.6731 -39.6615 -18.7478 -18.7033 -18.6602 -18.5943 -18.5679 -18.5280
     8.0527   8.5293   8.6380   8.7721  10.0656  10.1454  11.0663

          k = 0.2521 0.5337 0.1586 (  5714 PWs)   bands (ev):

   -39.6717 -39.6628 -18.7619 -18.7336 -18.6711 -18.5919 -18.5414 -18.5005
     8.1247   8.4857   8.7713   8.9630   9.8930   9.9486  11.0987

          k = 0.2521 0.5337 0.2380 (  5712 PWs)   bands (ev):

   -39.6697 -39.6649 -18.7759 -18.7606 -18.6597 -18.6128 -18.5061 -18.4842
     8.2276   8.4262   8.9876   9.2117   9.5832   9.7439  11.2124

          k = 0.2521 0.5337-0.3173 (  5712 PWs)   bands (ev):

   -39.6673 -39.6673 -18.7763 -18.7763 -18.6374 -18.6374 -18.4858 -18.4858
     8.3367   8.3367   9.2666   9.2666   9.4867   9.4867  11.4476

          k = 0.3362 0.5822 0.0000 (  5724 PWs)   bands (ev):

   -39.6660 -39.6660 -18.7343 -18.6657 -18.6657 -18.5906 -18.5839 -18.5839
     8.4704   8.4704   8.5701   8.6239  10.1065  10.1065  11.1618

          k = 0.3362 0.5822 0.0793 (  5706 PWs)   bands (ev):

   -39.6660 -39.6660 -18.7289 -18.6902 -18.6902 -18.5961 -18.5591 -18.5591
     8.5166   8.5166   8.5891   8.6451  10.0276  10.0276  11.1591

          k = 0.3362 0.5822 0.1586 (  5697 PWs)   bands (ev):

   -39.6660 -39.6660 -18.7274 -18.7274 -18.7135 -18.6119 -18.5211 -18.5211
     8.6394   8.6480   8.6480   8.6950   9.8243   9.8243  11.1730

          k = 0.3362 0.5822 0.2380 (  5706 PWs)   bands (ev):

   -39.6659 -39.6659 -18.7543 -18.7543 -18.6903 -18.6354 -18.4935 -18.4935
     8.7004   8.7384   8.8360   8.8360   9.5725   9.5726  11.2581

          k = 0.3362 0.5822-0.3173 (  5736 PWs)   bands (ev):

   -39.6659 -39.6659 -18.7638 -18.7638 -18.6629 -18.6629 -18.4836 -18.4836
     8.7416   8.7416   8.9639   8.9639   9.4202   9.4202  11.4671

     the Fermi energy is     9.1337 ev

!    total energy              =    -306.87676377 Ry
     total all-electron energy =     -3050.017535 Ry
     estimated scf accuracy    <          4.4E-09 Ry
     smearing contrib. (-TS)   =      -0.00101287 Ry
     internal energy E=F+TS    =    -306.87575090 Ry

     The total energy is F=E-TS. E is the sum of the following terms:
     one-electron contribution =     -72.59247332 Ry
     hartree contribution      =      41.70125938 Ry
     xc contribution           =     -34.56428826 Ry
     ewald contribution        =    -127.66332080 Ry
     one-center paw contrib.   =    -113.75692790 Ry

     convergence has been achieved in  27 iterations

     Forces acting on atoms (cartesian axes, Ry/au):

     atom    1 type  1   force =     0.00000000    0.00000000    0.00000000
     atom    2 type  1   force =    -0.00000000   -0.00000000   -0.00000000
     The non-local contrib.  to forces
     atom    1 type  1   force =     0.00000000    0.00000000    0.00000000
     atom    2 type  1   force =     0.00000000    0.00000000    0.00000000
     The ionic contribution  to forces
     atom    1 type  1   force =     0.00000000   -0.00000000    0.00000000
     atom    2 type  1   force =    -0.00000000    0.00000000    0.00000000
     The local contribution  to forces
     atom    1 type  1   force =     0.00000000    0.00000000    0.00000000
     atom    2 type  1   force =    -0.00000000    0.00000000    0.00000000
     The core correction contribution to forces
     atom    1 type  1   force =    -0.00000000   -0.00000000   -0.00000000
     atom    2 type  1   force =     0.00000000   -0.00000000    0.00000000
     The Hubbard contrib.    to forces
     atom    1 type  1   force =     0.00000000    0.00000000    0.00000000
     atom    2 type  1   force =     0.00000000    0.00000000    0.00000000
     The SCF correction term to forces
     atom    1 type  1   force =     0.00000000    0.00000000    0.00000000
     atom    2 type  1   force =     0.00000000   -0.00000000    0.00000000

     Total force =     0.000000     Total SCF correction =     0.000000


     Computing stress (Cartesian axis) and pressure

          total   stress  (Ry/bohr**3)                   (kbar)     P=      -42.36
  -0.00024866  -0.00000000  -0.00000000          -36.58       -0.00       -0.00
   0.00000000  -0.00024866   0.00000000            0.00      -36.58        0.00
  -0.00000000   0.00000000  -0.00036653           -0.00        0.00      -53.92

     Energy error            =      3.2E-03 Ry
     Gradient error          =      9.4E-28 Ry/Bohr
     Cell gradient error     =      5.4E+01 kbar

     number of scf cycles    =   2
     number of bfgs steps    =   1

     enthalpy           old  =    -306.8735607846 Ry
     enthalpy           new  =    -306.8767637672 Ry

     CASE: enthalpy          _new < enthalpy          _old

     new trust radius        =       0.0627208554 bohr
     new conv_thr            =            1.0E-10 Ry

     new unit-cell volume =    314.92583 a.u.^3 (    46.66719 Ang^3 )
     density =      3.17368 g/cm^3

CELL_PARAMETERS (alat=  6.25310370)
   0.980021794   0.000000000  -0.000000000
  -0.490010897   0.848723770   0.000000000
  -0.000000000   0.000000000   1.548528831

ATOMIC_POSITIONS (crystal)
Sc            0.0000000000        0.0000000000       -0.0000000000
Sc            0.6666666667        0.3333333333        0.5000000000



     Writing config-only to output data dir sc_vcrelax.out/scandium.save/
     NEW-OLD atomic charge density approx. for the potential

     Check: negative core charge=   -0.000012
     extrapolated charge   21.08031, renormalised to   22.00000

     total cpu time spent up to now is     1546.4 secs

     Self-consistent Calculation

     iteration #  1     ecut=   100.00 Ry     beta= 0.70
     Davidson diagonalization with overlap
     c_bands:  1 eigenvalues not converged
     c_bands:  2 eigenvalues not converged
     c_bands:  2 eigenvalues not converged
     c_bands:  1 eigenvalues not converged
     c_bands:  1 eigenvalues not converged
     c_bands:  3 eigenvalues not converged
     c_bands:  3 eigenvalues not converged
     c_bands:  3 eigenvalues not converged
     c_bands:  1 eigenvalues not converged
     c_bands:  3 eigenvalues not converged
     c_bands:  3 eigenvalues not converged
     c_bands:  2 eigenvalues not converged
     c_bands:  2 eigenvalues not converged
     c_bands:  1 eigenvalues not converged
     c_bands:  5 eigenvalues not converged
     c_bands:  3 eigenvalues not converged
     c_bands:  2 eigenvalues not converged
     c_bands:  5 eigenvalues not converged
     c_bands:  4 eigenvalues not converged
     c_bands:  1 eigenvalues not converged
     c_bands:  5 eigenvalues not converged
     c_bands:  2 eigenvalues not converged
     c_bands:  3 eigenvalues not converged
     c_bands:  4 eigenvalues not converged
     c_bands:  2 eigenvalues not converged
     c_bands:  3 eigenvalues not converged
     c_bands:  3 eigenvalues not converged
     c_bands:  3 eigenvalues not converged
     c_bands:  5 eigenvalues not converged
     c_bands:  4 eigenvalues not converged
     c_bands:  2 eigenvalues not converged
     c_bands:  2 eigenvalues not converged
     c_bands:  2 eigenvalues not converged
     c_bands:  2 eigenvalues not converged
     c_bands:  3 eigenvalues not converged
     c_bands:  3 eigenvalues not converged
     c_bands:  5 eigenvalues not converged
     c_bands:  3 eigenvalues not converged
     c_bands:  4 eigenvalues not converged
     c_bands:  5 eigenvalues not converged
     c_bands:  1 eigenvalues not converged
     c_bands:  3 eigenvalues not converged
     c_bands:  5 eigenvalues not converged
     c_bands:  1 eigenvalues not converged
     c_bands:  5 eigenvalues not converged
     c_bands:  1 eigenvalues not converged
     c_bands:  4 eigenvalues not converged
     c_bands:  4 eigenvalues not converged
     c_bands:  4 eigenvalues not converged
     c_bands:  4 eigenvalues not converged
     c_bands:  4 eigenvalues not converged
     c_bands:  5 eigenvalues not converged
     c_bands:  3 eigenvalues not converged
     c_bands:  3 eigenvalues not converged
     c_bands:  5 eigenvalues not converged
     c_bands:  4 eigenvalues not converged
     ethr =  1.00E-06,  avg # of iterations = 22.9

     total cpu time spent up to now is     1672.3 secs

     total energy              =    -306.63910811 Ry
     estimated scf accuracy    <       0.17486265 Ry

     iteration #  2     ecut=   100.00 Ry     beta= 0.70
     Davidson diagonalization with overlap
     ethr =  7.95E-04,  avg # of iterations =  7.1

     total cpu time spent up to now is     1714.1 secs

     total energy              =    -306.88640322 Ry
     estimated scf accuracy    <       0.27802869 Ry

     iteration #  3     ecut=   100.00 Ry     beta= 0.70
     Davidson diagonalization with overlap
     ethr =  7.95E-04,  avg # of iterations =  1.1

     total cpu time spent up to now is     1733.0 secs

     total energy              =    -306.87570303 Ry
     estimated scf accuracy    <       0.08351970 Ry

     iteration #  4     ecut=   100.00 Ry     beta= 0.70
     Davidson diagonalization with overlap
     ethr =  3.80E-04,  avg # of iterations =  2.6

     total cpu time spent up to now is     1754.7 secs

     total energy              =    -306.87336839 Ry
     estimated scf accuracy    <       0.03643248 Ry

     iteration #  5     ecut=   100.00 Ry     beta= 0.70
     Davidson diagonalization with overlap
     ethr =  1.66E-04,  avg # of iterations =  2.7

[...]
     7.1173   9.2229   9.5687  10.1560  11.5058  11.6563  11.8062

          k =-0.0000 0.3947 0.1659 (  5128 PWs)   bands (ev):

   -38.5659 -38.5200 -17.7256 -17.6057 -17.4984 -17.4238 -17.3205 -17.3127
     7.3218   8.9429   9.7092  10.2668  11.3293  11.7434  11.8279

          k =-0.0000 0.3947 0.2488 (  5128 PWs)   bands (ev):

   -38.5554 -38.5305 -17.7252 -17.6568 -17.4296 -17.4003 -17.3444 -17.3307
     7.6450   8.5154   9.9735  10.3441  11.2211  11.5269  12.1008

          k =-0.0000 0.3947-0.3318 (  5118 PWs)   bands (ev):

   -38.5430 -38.5430 -17.7004 -17.7004 -17.3724 -17.3724 -17.3706 -17.3706
     8.0583   8.0583  10.2389  10.2389  11.2942  11.2942  12.4527

          k =-0.0000 0.4934-0.0000 (  5126 PWs)   bands (ev):

   -38.5570 -38.5109 -17.6971 -17.6088 -17.5885 -17.4650 -17.3582 -17.3090
     7.9006   9.0895   9.3336   9.8855  11.4374  11.5324  11.9731

          k =-0.0000 0.4934 0.0829 (  5131 PWs)   bands (ev):

   -38.5553 -38.5126 -17.7263 -17.6162 -17.5606 -17.4591 -17.3489 -17.3150
     7.9220   9.0332   9.4233   9.9129  11.5115  11.5392  11.9144

          k =-0.0000 0.4934 0.1659 (  5142 PWs)   bands (ev):

   -38.5503 -38.5176 -17.7596 -17.6651 -17.4893 -17.4424 -17.3365 -17.3321
     7.9971   8.8684   9.6376  10.0324  11.5157  11.7301  11.7644

          k =-0.0000 0.4934 0.2488 (  5130 PWs)   bands (ev):

   -38.5428 -38.5251 -17.7704 -17.7169 -17.4211 -17.4173 -17.3576 -17.3406
     8.1428   8.6203   9.9160  10.1857  11.4229  11.5903  12.0814

          k =-0.0000 0.4934-0.3318 (  5116 PWs)   bands (ev):

   -38.5339 -38.5339 -17.7551 -17.7551 -17.3876 -17.3876 -17.3691 -17.3691
     8.3594   8.3594  10.1568  10.1568  11.4335  11.4335  12.5431

          k = 0.0000-0.5921 0.0000 (  5122 PWs)   bands (ev):

   -38.5491 -38.5122 -17.7218 -17.6103 -17.5800 -17.4722 -17.3803 -17.3128
     8.3932   8.8686   9.2511   9.7843  11.3815  11.4838  12.0920

          k = 0.0000-0.5921 0.0829 (  5138 PWs)   bands (ev):

   -38.5477 -38.5136 -17.7447 -17.6343 -17.5449 -17.4662 -17.3678 -17.3190
     8.3441   8.8614   9.4082   9.7597  11.4599  11.5533  11.9994

          k = 0.0000-0.5921 0.1659 (  5140 PWs)   bands (ev):

   -38.5437 -38.5176 -17.7764 -17.6862 -17.4786 -17.4491 -17.3486 -17.3365
     8.2911   8.7894   9.7548   9.7864  11.6730  11.6917  11.7669

          k = 0.0000-0.5921 0.2488 (  5130 PWs)   bands (ev):

   -38.5377 -38.5236 -17.7887 -17.7386 -17.4235 -17.4147 -17.3625 -17.3457
     8.3204   8.6235   9.9534  10.0807  11.5408  11.6755  12.0656

          k = 0.0000-0.5921-0.3318 (  5116 PWs)   bands (ev):

   -38.5306 -38.5306 -17.7755 -17.7755 -17.3931 -17.3931 -17.3680 -17.3680
     8.4424   8.4424  10.1383  10.1383  11.5401  11.5402  12.5608

          k = 0.0855 0.1480-0.0000 (  5137 PWs)   bands (ev):

   -38.6217 -38.5187 -17.8021 -17.4209 -17.3905 -17.3258 -17.2738 -17.2385
     5.2980   8.6679  10.5343  11.0480  11.9243  12.0729  12.0898

          k = 0.0855 0.1480 0.0829 (  5132 PWs)   bands (ev):

   -38.6178 -38.5226 -17.7841 -17.4148 -17.3881 -17.3396 -17.2780 -17.2485
     5.4083   8.5681  10.4297  11.0595  11.9003  11.9308  11.9643

          k = 0.0855 0.1480 0.1659 (  5116 PWs)   bands (ev):

   -38.6067 -38.5339 -17.7326 -17.4017 -17.3974 -17.3621 -17.2899 -17.2731
     5.7309   8.2042  10.3418  11.0982  11.6329  11.7726  11.9032

          k = 0.0855 0.1480 0.2488 (  5131 PWs)   bands (ev):

   -38.5901 -38.5507 -17.6551 -17.4720 -17.3714 -17.3507 -17.3076 -17.3040
     6.2395   7.5879  10.4773  11.0801  11.3871  11.6745  11.7891

          k = 0.0855 0.1480-0.3318 (  5136 PWs)   bands (ev):

   -38.5704 -38.5704 -17.5632 -17.5632 -17.3426 -17.3426 -17.3254 -17.3254
     6.8861   6.8861  10.7777  10.7777  11.4838  11.4840  11.8447

          k = 0.0855 0.2467-0.0000 (  5111 PWs)   bands (ev):

   -38.6047 -38.5145 -17.7561 -17.4925 -17.4440 -17.3773 -17.2891 -17.2631
     5.8978   9.0619  10.1181  10.5755  11.7050  11.7775  12.1142

          k = 0.0855 0.2467 0.0829 (  5119 PWs)   bands (ev):

   -38.6013 -38.5180 -17.7457 -17.4829 -17.4478 -17.3860 -17.2942 -17.2665
     5.9985   8.9817  10.0288  10.6059  11.6704  11.7907  12.0080

          k = 0.0855 0.2467 0.1659 (  5130 PWs)   bands (ev):

   -38.5916 -38.5278 -17.7152 -17.4854 -17.4457 -17.3902 -17.3081 -17.2809
     6.2933   8.6256  10.0095  10.6887  11.4701  11.7708  11.9260

          k = 0.0855 0.2467 0.2488 (  5137 PWs)   bands (ev):

   -38.5770 -38.5425 -17.6669 -17.5405 -17.4063 -17.3769 -17.3281 -17.3090
     6.7598   8.0198  10.2149  10.7404  11.2542  11.5629  11.9934

          k = 0.0855 0.2467-0.3318 (  5134 PWs)   bands (ev):

   -38.5598 -38.5598 -17.6059 -17.6059 -17.3692 -17.3692 -17.3393 -17.3393
     7.3577   7.3577  10.5274  10.5274  11.3271  11.3272  12.1215

          k = 0.0855 0.3454-0.0000 (  5113 PWs)   bands (ev):

   -38.5838 -38.5111 -17.6954 -17.5826 -17.5082 -17.4261 -17.3055 -17.2989
     6.7049   9.3490   9.7304  10.1705  11.5249  11.6366  11.8754

          k = 0.0855 0.3454 0.0829 (  5118 PWs)   bands (ev):

   -38.5810 -38.5138 -17.7044 -17.5631 -17.5139 -17.4281 -17.3130 -17.2946
     6.7878   9.2996   9.6810  10.2170  11.4407  11.7130  11.8377

          k = 0.0855 0.3454 0.1659 (  5126 PWs)   bands (ev):

   -38.5732 -38.5218 -17.7113 -17.5732 -17.4863 -17.4212 -17.3294 -17.2963
     7.0304   8.9708   9.7810  10.3261  11.2898  11.6886  11.8733

          k = 0.0855 0.3454 0.2488 (  5132 PWs)   bands (ev):

   -38.5614 -38.5336 -17.6997 -17.6212 -17.4316 -17.3997 -17.3513 -17.3150
     7.4139   8.4524  10.0372  10.4201  11.1455  11.4452  12.0915

          k = 0.0855 0.3454-0.3318 (  5130 PWs)   bands (ev):

   -38.5475 -38.5475 -17.6677 -17.6677 -17.3934 -17.3934 -17.3482 -17.3482
     7.9053   7.9053  10.3131  10.3131  11.2005  11.2005  12.3653

          k = 0.0855 0.4440-0.0000 (  5111 PWs)   bands (ev):

   -38.5633 -38.5103 -17.6625 -17.6305 -17.5657 -17.4627 -17.3423 -17.3196
     7.5888   9.2808   9.4434   9.9275  11.3728  11.6426  11.8487

          k = 0.0855 0.4440 0.0829 (  5133 PWs)   bands (ev):

   -38.5613 -38.5123 -17.7024 -17.6046 -17.5571 -17.4593 -17.3395 -17.3202
     7.6388   9.2203   9.4829   9.9883  11.3638  11.6136  11.8542

          k = 0.0855 0.4440 0.1659 (  5127 PWs)   bands (ev):

   -38.5555 -38.5181 -17.7357 -17.6407 -17.4984 -17.4411 -17.3508 -17.3155
     7.7867   8.9976   9.6641  10.1318  11.2801  11.5695  11.9002

          k = 0.0855 0.4440 0.2488 (  5130 PWs)   bands (ev):

   -38.5469 -38.5267 -17.7444 -17.6894 -17.4487 -17.4051 -17.3716 -17.3224
     8.0243   8.6765   9.9430  10.2612  11.1750  11.3792  12.1420

          k = 0.0855 0.4440-0.3318 (  5138 PWs)   bands (ev):

   -38.5368 -38.5368 -17.7274 -17.7274 -17.4134 -17.4134 -17.3498 -17.3498
     8.3330   8.3330  10.2032  10.2032  11.1925  11.1925  12.5126

          k = 0.0855 0.5427-0.0000 (  5121 PWs)   bands (ev):

   -38.5492 -38.5121 -17.7088 -17.5994 -17.5805 -17.4822 -17.3798 -17.3278
     8.3293   9.0335   9.2923   9.7673  11.3268  11.4786  12.0791

          k = 0.0855 0.5427 0.0829 (  5124 PWs)   bands (ev):

   -38.5478 -38.5135 -17.7315 -17.6248 -17.5479 -17.4729 -17.3699 -17.3308
     8.3140   9.0028   9.4211   9.7781  11.3621  11.4982  12.0314

          k = 0.0855 0.5427 0.1659 (  5130 PWs)   bands (ev):

   -38.5437 -38.5175 -17.7630 -17.6760 -17.4988 -17.4403 -17.3688 -17.3296
     8.3122   8.9018   9.6803   9.9043  11.3750  11.5112  12.0061

          k = 0.0855 0.5427 0.2488 (  5124 PWs)   bands (ev):

   -38.5377 -38.5235 -17.7758 -17.7274 -17.4600 -17.3973 -17.3854 -17.3290
     8.3789   8.7195   9.9513  10.1485  11.2505  11.4223  12.2235

          k = 0.0855 0.5427-0.3318 (  5120 PWs)   bands (ev):

   -38.5306 -38.5306 -17.7633 -17.7633 -17.4250 -17.4250 -17.3488 -17.3488
     8.5241   8.5241  10.1817  10.1817  11.2547  11.2547  12.6222

          k = 0.1709 0.2960-0.0000 (  5108 PWs)   bands (ev):

   -38.5867 -38.5114 -17.7043 -17.5395 -17.5305 -17.4047 -17.3189 -17.2934
     6.5884   9.4041   9.8072  10.1600  11.4581  11.6109  11.9781

          k = 0.1709 0.2960 0.0829 (  5106 PWs)   bands (ev):

   -38.5838 -38.5143 -17.7069 -17.5362 -17.5192 -17.4158 -17.3240 -17.2895
     6.6759   9.3585   9.7355  10.1999  11.4248  11.6654  11.8997

          k = 0.1709 0.2960 0.1659 (  5133 PWs)   bands (ev):

   -38.5757 -38.5225 -17.7050 -17.5610 -17.4714 -17.4267 -17.3379 -17.2904
     6.9319   9.0023   9.8187  10.3110  11.3018  11.6490  11.8620

          k = 0.1709 0.2960 0.2488 (  5134 PWs)   bands (ev):

   -38.5635 -38.5347 -17.6874 -17.6055 -17.4195 -17.4191 -17.3538 -17.3083
     7.3372   8.4420  10.0726  10.4323  11.1237  11.3878  12.0633

          k = 0.1709 0.2960-0.3318 (  5130 PWs)   bands (ev):

   -38.5492 -38.5492 -17.6522 -17.6522 -17.4039 -17.4039 -17.3409 -17.3409
     7.8581   7.8581  10.3497  10.3497  11.1417  11.1417  12.3118

          k = 0.1709 0.3947-0.0000 (  5130 PWs)   bands (ev):

   -38.5667 -38.5102 -17.6422 -17.6161 -17.5703 -17.4497 -17.3468 -17.3339
     7.4305   9.5331   9.5500   9.8508  11.2495  11.7358  11.7452

          k = 0.1709 0.3947 0.0829 (  5128 PWs)   bands (ev):

   -38.5646 -38.5123 -17.6779 -17.6053 -17.5400 -17.4605 -17.3540 -17.3211
     7.4963   9.4421   9.5982   9.9099  11.2320  11.6515  11.7670

          k = 0.1709 0.3947 0.1659 (  5125 PWs)   bands (ev):

   -38.5585 -38.5185 -17.7085 -17.6273 -17.4878 -17.4589 -17.3686 -17.3072
     7.6883   9.1699   9.7724  10.0474  11.1555  11.4552  11.8505

          k = 0.1709 0.3947 0.2488 (  5126 PWs)   bands (ev):

   -38.5493 -38.5276 -17.7160 -17.6658 -17.4653 -17.4278 -17.3715 -17.3114
     7.9900   8.7879  10.0222  10.2079  11.0208  11.1827  12.0682

          k = 0.1709 0.3947-0.3318 (  5130 PWs)   bands (ev):

   -38.5385 -38.5385 -17.6999 -17.6999 -17.4415 -17.4415 -17.3375 -17.3375
     8.3721   8.3721  10.2332  10.2332  10.9801  10.9801  12.4010

          k = 0.1709 0.4934-0.0000 (  5119 PWs)   bands (ev):

   -38.5493 -38.5120 -17.6746 -17.5851 -17.5816 -17.4956 -17.3787 -17.3652
     8.2586   9.3429   9.3836   9.7153  11.1798  11.4993  12.0297

          k = 0.1709 0.4934 0.0829 (  5120 PWs)   bands (ev):

   -38.5479 -38.5134 -17.6960 -17.6190 -17.5429 -17.4889 -17.3821 -17.3513
     8.2867   9.2815   9.4595   9.7959  11.1732  11.4223  12.0251

          k = 0.1709 0.4934 0.1659 (  5120 PWs)   bands (ev):

   -38.5439 -38.5174 -17.7284 -17.6598 -17.5250 -17.4440 -17.3949 -17.3267
     8.3738   9.1411   9.6564   9.9956  11.1099  11.2281  12.0625

          k = 0.1709 0.4934 0.2488 (  5122 PWs)   bands (ev):

   -38.5378 -38.5235 -17.7438 -17.7040 -17.5012 -17.4397 -17.3708 -17.3178
     8.5224   8.9426   9.9485  10.2234  10.9375  10.9935  12.2286

          k = 0.1709 0.4934-0.3318 (  5122 PWs)   bands (ev):

   -38.5306 -38.5306 -17.7351 -17.7351 -17.4700 -17.4700 -17.3334 -17.3334
     8.7219   8.7219  10.2353  10.2353  10.8372  10.8372  12.5352

          k = 0.1709 0.5921-0.0000 (  5126 PWs)   bands (ev):

   -38.5414 -38.5143 -17.6957 -17.5863 -17.5505 -17.5171 -17.4039 -17.3717
     8.7313   9.1564   9.3262   9.6298  11.2034  11.3619  12.1781

          k = 0.1709 0.5921 0.0829 (  5133 PWs)   bands (ev):

   -38.5403 -38.5153 -17.7123 -17.6130 -17.5549 -17.4805 -17.4012 -17.3627
     8.6975   9.1583   9.4613   9.6499  11.1848  11.3216  12.1648

          k = 0.1709 0.5921 0.1659 (  5123 PWs)   bands (ev):

   -38.5374 -38.5182 -17.7408 -17.6662 -17.5421 -17.4205 -17.4166 -17.3366
     8.6723   9.1102   9.7671   9.7749  11.0785  11.2025  12.1910

          k = 0.1709 0.5921 0.2488 (  5114 PWs)   bands (ev):

   -38.5329 -38.5226 -17.7560 -17.7160 -17.5148 -17.4457 -17.3665 -17.3220
     8.7173   8.9819  10.0164  10.1439  10.8463  10.9977  12.3519

          k = 0.1709 0.5921-0.3318 (  5112 PWs)   bands (ev):

   -38.5278 -38.5278 -17.7479 -17.7479 -17.4806 -17.4806 -17.3316 -17.3316
     8.8315   8.8315  10.2858  10.2858  10.7506  10.7506  12.6479

          k = 0.2564 0.4440-0.0000 (  5128 PWs)   bands (ev):

   -38.5494 -38.5119 -17.6457 -17.5957 -17.5821 -17.4881 -17.3922 -17.3781
     8.2358   9.4350   9.5708   9.6154  11.0980  11.5135  11.9889

          k = 0.2564 0.4440 0.0829 (  5121 PWs)   bands (ev):

   -38.5480 -38.5133 -17.6530 -17.6484 -17.5174 -17.5089 -17.3973 -17.3565
     8.2820   9.3731   9.6152   9.7170  11.0916  11.3892  11.9871

          k = 0.2564 0.4440 0.1659 (  5122 PWs)   bands (ev):

   -38.5439 -38.5174 -17.6988 -17.6644 -17.5286 -17.4607 -17.4011 -17.3263
     8.4144   9.2542   9.7487   9.9248  11.0404  11.1042  12.0087

          k = 0.2564 0.4440 0.2488 (  5118 PWs)   bands (ev):

   -38.5378 -38.5235 -17.7209 -17.6943 -17.5192 -17.4643 -17.3653 -17.3146
     8.6143   9.0775   9.9627  10.1584  10.7968  10.8960  12.1407

          k = 0.2564 0.4440-0.3318 (  5116 PWs)   bands (ev):

   -38.5306 -38.5306 -17.7179 -17.7179 -17.4927 -17.4927 -17.3284 -17.3284
     8.8501   8.8501  10.1927  10.1927  10.7119  10.7119  12.4382

          k = 0.2564 0.5427-0.0000 (  5111 PWs)   bands (ev):

   -38.5358 -38.5165 -17.6684 -17.5782 -17.5349 -17.5279 -17.4232 -17.4203
     8.9057   9.3821   9.4045   9.5309  11.0896  11.2899  12.2429

          k = 0.2564 0.5427 0.0829 (  5121 PWs)   bands (ev):

   -38.5351 -38.5173 -17.6738 -17.6164 -17.5650 -17.4763 -17.4306 -17.3900
     8.9268   9.3595   9.4634   9.6209  11.0562  11.1813  12.2328

          k = 0.2564 0.5427 0.1659 (  5120 PWs)   bands (ev):

   -38.5330 -38.5193 -17.6986 -17.6594 -17.5817 -17.4610 -17.4019 -17.3475
     8.9891   9.3303   9.6245   9.8388  10.9072  10.9437  12.2367

          k = 0.2564 0.5427 0.2488 (  5112 PWs)   bands (ev):

   -38.5298 -38.5224 -17.7215 -17.6995 -17.5621 -17.4913 -17.3517 -17.3222
     9.0846   9.2781   9.8824  10.1292  10.5645  10.7318  12.3297

          k = 0.2564 0.5427-0.3318 (  5106 PWs)   bands (ev):

   -38.5261 -38.5261 -17.7226 -17.7226 -17.5279 -17.5279 -17.3233 -17.3233
     9.1909   9.1909  10.2066  10.2066  10.4467  10.4467  12.5712

          k = 0.3418 0.5921-0.0000 (  5142 PWs)   bands (ev):

   -38.5245 -38.5245 -17.6604 -17.5604 -17.5604 -17.4739 -17.4739 -17.4505
     9.3249   9.3249   9.3914   9.4286  11.1289  11.1289  12.3530

          k = 0.3418 0.5921 0.0829 (  5124 PWs)   bands (ev):

   -38.5245 -38.5245 -17.6525 -17.6016 -17.6016 -17.4587 -17.4321 -17.4321
     9.3762   9.3762   9.4221   9.4498  11.0454  11.0454  12.3406

          k = 0.3418 0.5921 0.1659 (  5109 PWs)   bands (ev):

   -38.5245 -38.5245 -17.6575 -17.6575 -17.6302 -17.4818 -17.3747 -17.3747
     9.4975   9.5049   9.5210   9.5210  10.8304  10.8304  12.3313

          k = 0.3418 0.5921 0.2488 (  5130 PWs)   bands (ev):

   -38.5245 -38.5245 -17.6966 -17.6966 -17.5965 -17.5162 -17.3343 -17.3343
     9.5678   9.5727   9.7238   9.7238  10.5663  10.5663  12.3958

          k = 0.3418 0.5921-0.3318 (  5112 PWs)   bands (ev):

   -38.5244 -38.5244 -17.7104 -17.7104 -17.5565 -17.5565 -17.3198 -17.3198
     9.6001   9.6001   9.8551   9.8551  10.4117  10.4117  12.6071

     the Fermi energy is    10.0463 ev

!    total energy              =    -306.88075190 Ry
     total all-electron energy =     -3050.021523 Ry
     estimated scf accuracy    <          1.8E-11 Ry
     smearing contrib. (-TS)   =      -0.00077362 Ry
     internal energy E=F+TS    =    -306.87997828 Ry

     The total energy is F=E-TS. E is the sum of the following terms:
     one-electron contribution =     -67.58712735 Ry
     hartree contribution      =      40.12107021 Ry
     xc contribution           =     -34.67114112 Ry
     ewald contribution        =    -130.98648080 Ry
     one-center paw contrib.   =    -113.75629922 Ry

     convergence has been achieved in  23 iterations

     Forces acting on atoms (cartesian axes, Ry/au):

     atom    1 type  1   force =    -0.00000000   -0.00000000    0.00000000
     atom    2 type  1   force =    -0.00000000   -0.00000000    0.00000000
     The non-local contrib.  to forces
     atom    1 type  1   force =     0.00000000    0.00000000   -0.00000000
     atom    2 type  1   force =    -0.00000000   -0.00000000    0.00000000
     The ionic contribution  to forces
     atom    1 type  1   force =     0.00000000   -0.00000000   -0.00000000
     atom    2 type  1   force =    -0.00000000    0.00000000   -0.00000000
     The local contribution  to forces
     atom    1 type  1   force =     0.00000000    0.00000000    0.00000000
     atom    2 type  1   force =    -0.00000000    0.00000000    0.00000000
     The core correction contribution to forces
     atom    1 type  1   force =    -0.00000000   -0.00000000    0.00000000
     atom    2 type  1   force =     0.00000000   -0.00000000   -0.00000000
     The Hubbard contrib.    to forces
     atom    1 type  1   force =     0.00000000    0.00000000    0.00000000
     atom    2 type  1   force =     0.00000000    0.00000000    0.00000000
     The SCF correction term to forces
     atom    1 type  1   force =    -0.00000000   -0.00000000    0.00000000
     atom    2 type  1   force =     0.00000000   -0.00000000    0.00000000

     Total force =     0.000000     Total SCF correction =     0.000000


     Computing stress (Cartesian axis) and pressure

          total   stress  (Ry/bohr**3)                   (kbar)     P=       -0.24
  -0.00000160   0.00000000  -0.00000000           -0.24        0.00       -0.00
   0.00000000  -0.00000160   0.00000000            0.00       -0.24        0.00
  -0.00000000   0.00000000  -0.00000172           -0.00        0.00       -0.25


     Writing all to output data dir sc_vcrelax.out/scandium.save/

     init_run     :     28.96s CPU     29.95s WALL (       2 calls)
     electrons    :   7777.91s CPU   7844.13s WALL (      10 calls)
     update_pot   :     30.54s CPU     31.51s WALL (       8 calls)
     forces       :     42.10s CPU     43.00s WALL (      10 calls)
     stress       :    193.04s CPU    195.64s WALL (      10 calls)

     Called by init_run:
     wfcinit      :     20.21s CPU     20.42s WALL (       2 calls)
     potinit      :      1.89s CPU      1.95s WALL (       2 calls)
     hinit0       :      6.45s CPU      6.49s WALL (       2 calls)

     Called by electrons:
     c_bands      :   7039.01s CPU   7086.12s WALL (     216 calls)
     sum_band     :    691.11s CPU    698.33s WALL (     216 calls)
     v_of_rho     :      3.40s CPU      3.60s WALL (     224 calls)
     newd         :     24.55s CPU     30.57s WALL (     224 calls)
     PAW_pot      :     20.14s CPU     20.42s WALL (     232 calls)
     mix_rho      :      2.32s CPU      2.66s WALL (     216 calls)

     Called by c_bands:
     init_us_2    :     96.11s CPU     98.64s WALL (   43890 calls)
     init_us_2:cp :     95.97s CPU     98.55s WALL (   43890 calls)
     cegterg      :   6837.99s CPU   6848.78s WALL (   20721 calls)

     Called by *egterg:
     cdiaghg      :     36.65s CPU     36.84s WALL (  151947 calls)
     h_psi        :   5018.32s CPU   5026.96s WALL (  153270 calls)
     s_psi        :    377.35s CPU    378.03s WALL (  153270 calls)
     g_psi        :     37.72s CPU     37.88s WALL (  132359 calls)

     Called by h_psi:
     h_psi:calbec :    362.73s CPU    363.28s WALL (  153270 calls)
     vloc_psi     :   4268.50s CPU   4276.02s WALL (  153270 calls)
     add_vuspsi   :    375.66s CPU    376.20s WALL (  153270 calls)

     General routines
     calbec       :    475.40s CPU    476.13s WALL (  179300 calls)
     fft          :      2.56s CPU      2.57s WALL (     986 calls)
     ffts         :      0.57s CPU      0.57s WALL (     216 calls)
     fftw         :   4324.94s CPU   4332.92s WALL ( 2845002 calls)

     Parallel routines

     PWSCF        :      2h14m CPU      2h17m WALL


   This run was terminated on:  16:38: 5  19Jun2023            

=------------------------------------------------------------------------------=
   JOB DONE.
=------------------------------------------------------------------------------=
