
     Program PWSCF v.7.2 starts on 19Jun2023 at 12:23:27 

     This program is part of the open-source Quantum ESPRESSO suite
     for quantum simulation of materials; please cite
         "P. Giannozzi et al., J. Phys.:Condens. Matter 21 395502 (2009);
         "P. Giannozzi et al., J. Phys.:Condens. Matter 29 465901 (2017);
         "P. Giannozzi et al., J. Chem. Phys. 152 154105 (2020);
          URL http://www.quantum-espresso.org", 
     in publications or presentations arising from this work. More details at
     http://www.quantum-espresso.org/quote

     Parallel version (MPI), running on     1 processors

     MPI processes distributed on     1 nodes
     317489 MiB available memory on the printing compute node when the environment starts

     Waiting for input...
     Reading input from standard input

     Current dimensions of program PWSCF are:
     Max number of different atomic species (ntypx) = 10
     Max number of k-points (npk) = 120000
     Max angular momentum in pseudopotentials (lmaxx) =  4
     file Sc.pz-spn-kjpaw_psl.1.0.0.UPF: wavefunction(s)  3S 3P 3D renormalized

     Subspace diagonalization in iterative solution of the eigenvalue problem:
     a serial algorithm will be used


     G-vector sticks info
     --------------------
     sticks:   dense  smooth     PW     G-vecs:    dense   smooth      PW
     Sum         955     955    283                38995    38995    6075

     Using Slab Decomposition



     bravais-lattice index     =            4
     lattice parameter (alat)  =       6.2531  a.u.
     unit-cell volume          =     337.5249 (a.u.)^3
     number of atoms/cell      =            2
     number of atomic types    =            1
     number of electrons       =        22.00
     number of Kohn-Sham states=           15
     kinetic-energy cutoff     =      90.0000  Ry
     charge density cutoff     =     360.0000  Ry
     scf convergence threshold =      1.0E-08
     mixing beta               =       0.7000
     number of iterations used =            8  plain     mixing
     energy convergence thresh.=      1.0E-04
     force convergence thresh. =      1.0E-03
     press convergence thresh. =      5.0E-01
     Exchange-correlation= SLA  PZ   NOGX NOGC
                           (   1   1   0   0   0   0   0)
     nstep                     =           50


     celldm(1)=   6.253104  celldm(2)=   0.000000  celldm(3)=   1.594000
     celldm(4)=   0.000000  celldm(5)=   0.000000  celldm(6)=   0.000000

     crystal axes: (cart. coord. in units of alat)
               a(1) = (   1.000000   0.000000   0.000000 )  
               a(2) = (  -0.500000   0.866025   0.000000 )  
               a(3) = (   0.000000   0.000000   1.594000 )  

     reciprocal axes: (cart. coord. in units 2 pi/alat)
               b(1) = (  1.000000  0.577350 -0.000000 )  
               b(2) = (  0.000000  1.154701  0.000000 )  
               b(3) = (  0.000000 -0.000000  0.627353 )  


     PseudoPot. # 1 for Sc read from file:
     ../../../Sc.pz-spn-kjpaw_psl.1.0.0.UPF
     MD5 check sum: 1f9095df0bb42a6568b4e9f256ff075f
     Pseudo is Projector augmented-wave + core cor, Zval = 11.0
     Generated using 'atomic' code by A. Dal Corso  v.7.1
     Shape of augmentation charge: PSQ
     Using radial grid of 1173 points,  6 beta functions with: 
                l(1) =   0
                l(2) =   0
                l(3) =   1
                l(4) =   1
                l(5) =   2
                l(6) =   2
     Q(r) pseudized with 0 coefficients 


     atomic species   valence    mass     pseudopotential
        Sc            11.00    44.59600     Sc( 1.00)

     24 Sym. Ops., with inversion, found (12 have fractional translation)



   Cartesian axes

     site n.     atom                  positions (alat units)
         1           Sc  tau(   1) = (   0.0000000   0.0000000   0.0000000  )
         2           Sc  tau(   2) = (   0.5000000   0.2886751   0.7970000  )

     number of k points=    95  Marzari-Vanderbilt smearing, width (Ry)=  0.0200
                       cart. coord. in units 2pi/alat
        k(    1) = (   0.0000000   0.0000000   0.0000000), wk =   0.0017361
        k(    2) = (   0.0000000   0.0000000   0.0784191), wk =   0.0034722
        k(    3) = (   0.0000000   0.0000000   0.1568381), wk =   0.0034722
        k(    4) = (   0.0000000   0.0000000   0.2352572), wk =   0.0034722
        k(    5) = (   0.0000000   0.0000000  -0.3136763), wk =   0.0017361
        k(    6) = (   0.0000000   0.0962250   0.0000000), wk =   0.0104167
        k(    7) = (   0.0000000   0.0962250   0.0784191), wk =   0.0208333
        k(    8) = (   0.0000000   0.0962250   0.1568381), wk =   0.0208333
        k(    9) = (   0.0000000   0.0962250   0.2352572), wk =   0.0208333
        k(   10) = (   0.0000000   0.0962250  -0.3136763), wk =   0.0104167
        k(   11) = (   0.0000000   0.1924501   0.0000000), wk =   0.0104167
        k(   12) = (   0.0000000   0.1924501   0.0784191), wk =   0.0208333
        k(   13) = (   0.0000000   0.1924501   0.1568381), wk =   0.0208333
        k(   14) = (   0.0000000   0.1924501   0.2352572), wk =   0.0208333
        k(   15) = (   0.0000000   0.1924501  -0.3136763), wk =   0.0104167
        k(   16) = (   0.0000000   0.2886751   0.0000000), wk =   0.0104167
        k(   17) = (   0.0000000   0.2886751   0.0784191), wk =   0.0208333
        k(   18) = (   0.0000000   0.2886751   0.1568381), wk =   0.0208333
        k(   19) = (   0.0000000   0.2886751   0.2352572), wk =   0.0208333
        k(   20) = (   0.0000000   0.2886751  -0.3136763), wk =   0.0104167
        k(   21) = (   0.0000000   0.3849002   0.0000000), wk =   0.0104167
        k(   22) = (   0.0000000   0.3849002   0.0784191), wk =   0.0208333
        k(   23) = (   0.0000000   0.3849002   0.1568381), wk =   0.0208333
        k(   24) = (   0.0000000   0.3849002   0.2352572), wk =   0.0208333
        k(   25) = (   0.0000000   0.3849002  -0.3136763), wk =   0.0104167
        k(   26) = (   0.0000000   0.4811252   0.0000000), wk =   0.0104167
        k(   27) = (   0.0000000   0.4811252   0.0784191), wk =   0.0208333
        k(   28) = (   0.0000000   0.4811252   0.1568381), wk =   0.0208333
        k(   29) = (   0.0000000   0.4811252   0.2352572), wk =   0.0208333
        k(   30) = (   0.0000000   0.4811252  -0.3136763), wk =   0.0104167
        k(   31) = (   0.0000000  -0.5773503   0.0000000), wk =   0.0052083
        k(   32) = (   0.0000000  -0.5773503   0.0784191), wk =   0.0104167
        k(   33) = (   0.0000000  -0.5773503   0.1568381), wk =   0.0104167
        k(   34) = (   0.0000000  -0.5773503   0.2352572), wk =   0.0104167
        k(   35) = (   0.0000000  -0.5773503  -0.3136763), wk =   0.0052083
        k(   36) = (   0.0833333   0.1443376   0.0000000), wk =   0.0104167
        k(   37) = (   0.0833333   0.1443376   0.0784191), wk =   0.0208333
        k(   38) = (   0.0833333   0.1443376   0.1568381), wk =   0.0208333
        k(   39) = (   0.0833333   0.1443376   0.2352572), wk =   0.0208333
        k(   40) = (   0.0833333   0.1443376  -0.3136763), wk =   0.0104167
        k(   41) = (   0.0833333   0.2405626   0.0000000), wk =   0.0208333
        k(   42) = (   0.0833333   0.2405626   0.0784191), wk =   0.0416667
        k(   43) = (   0.0833333   0.2405626   0.1568381), wk =   0.0416667
        k(   44) = (   0.0833333   0.2405626   0.2352572), wk =   0.0416667
        k(   45) = (   0.0833333   0.2405626  -0.3136763), wk =   0.0208333
        k(   46) = (   0.0833333   0.3367877   0.0000000), wk =   0.0208333
        k(   47) = (   0.0833333   0.3367877   0.0784191), wk =   0.0416667
        k(   48) = (   0.0833333   0.3367877   0.1568381), wk =   0.0416667
        k(   49) = (   0.0833333   0.3367877   0.2352572), wk =   0.0416667
        k(   50) = (   0.0833333   0.3367877  -0.3136763), wk =   0.0208333
        k(   51) = (   0.0833333   0.4330127   0.0000000), wk =   0.0208333
        k(   52) = (   0.0833333   0.4330127   0.0784191), wk =   0.0416667
        k(   53) = (   0.0833333   0.4330127   0.1568381), wk =   0.0416667
        k(   54) = (   0.0833333   0.4330127   0.2352572), wk =   0.0416667
        k(   55) = (   0.0833333   0.4330127  -0.3136763), wk =   0.0208333
        k(   56) = (   0.0833333   0.5292377   0.0000000), wk =   0.0208333
        k(   57) = (   0.0833333   0.5292377   0.0784191), wk =   0.0416667
        k(   58) = (   0.0833333   0.5292377   0.1568381), wk =   0.0416667
        k(   59) = (   0.0833333   0.5292377   0.2352572), wk =   0.0416667
        k(   60) = (   0.0833333   0.5292377  -0.3136763), wk =   0.0208333
        k(   61) = (   0.1666667   0.2886751   0.0000000), wk =   0.0104167
        k(   62) = (   0.1666667   0.2886751   0.0784191), wk =   0.0208333
        k(   63) = (   0.1666667   0.2886751   0.1568381), wk =   0.0208333
        k(   64) = (   0.1666667   0.2886751   0.2352572), wk =   0.0208333
        k(   65) = (   0.1666667   0.2886751  -0.3136763), wk =   0.0104167
        k(   66) = (   0.1666667   0.3849002   0.0000000), wk =   0.0208333
        k(   67) = (   0.1666667   0.3849002   0.0784191), wk =   0.0416667
        k(   68) = (   0.1666667   0.3849002   0.1568381), wk =   0.0416667
        k(   69) = (   0.1666667   0.3849002   0.2352572), wk =   0.0416667
        k(   70) = (   0.1666667   0.3849002  -0.3136763), wk =   0.0208333
        k(   71) = (   0.1666667   0.4811252   0.0000000), wk =   0.0208333
        k(   72) = (   0.1666667   0.4811252   0.0784191), wk =   0.0416667
        k(   73) = (   0.1666667   0.4811252   0.1568381), wk =   0.0416667
        k(   74) = (   0.1666667   0.4811252   0.2352572), wk =   0.0416667
        k(   75) = (   0.1666667   0.4811252  -0.3136763), wk =   0.0208333
        k(   76) = (   0.1666667   0.5773503   0.0000000), wk =   0.0104167
        k(   77) = (   0.1666667   0.5773503   0.0784191), wk =   0.0208333
        k(   78) = (   0.1666667   0.5773503   0.1568381), wk =   0.0208333
        k(   79) = (   0.1666667   0.5773503   0.2352572), wk =   0.0208333
        k(   80) = (   0.1666667   0.5773503  -0.3136763), wk =   0.0104167
        k(   81) = (   0.2500000   0.4330127   0.0000000), wk =   0.0104167
        k(   82) = (   0.2500000   0.4330127   0.0784191), wk =   0.0208333
        k(   83) = (   0.2500000   0.4330127   0.1568381), wk =   0.0208333
        k(   84) = (   0.2500000   0.4330127   0.2352572), wk =   0.0208333
        k(   85) = (   0.2500000   0.4330127  -0.3136763), wk =   0.0104167
        k(   86) = (   0.2500000   0.5292377   0.0000000), wk =   0.0208333
        k(   87) = (   0.2500000   0.5292377   0.0784191), wk =   0.0416667
        k(   88) = (   0.2500000   0.5292377   0.1568381), wk =   0.0416667
        k(   89) = (   0.2500000   0.5292377   0.2352572), wk =   0.0416667
        k(   90) = (   0.2500000   0.5292377  -0.3136763), wk =   0.0208333
        k(   91) = (   0.3333333   0.5773503   0.0000000), wk =   0.0034722
        k(   92) = (   0.3333333   0.5773503   0.0784191), wk =   0.0069444
        k(   93) = (   0.3333333   0.5773503   0.1568381), wk =   0.0069444
        k(   94) = (   0.3333333   0.5773503   0.2352572), wk =   0.0069444
        k(   95) = (   0.3333333   0.5773503  -0.3136763), wk =   0.0034722

     Dense  grid:    38995 G-vectors     FFT dimensions: (  45,  45,  64)

     Estimated max dynamical RAM per process >     257.37 MB

     Check: negative core charge=   -0.000008

     Initial potential from superposition of free atoms

     starting charge      21.9956, renormalised to      22.0000
     Starting wfcs are   20 randomized atomic wfcs
     Checking if some PAW data can be deallocated... 

     total cpu time spent up to now is       14.3 secs

     Self-consistent Calculation

     iteration #  1     ecut=    90.00 Ry     beta= 0.70
     Davidson diagonalization with overlap
     ethr =  1.00E-02,  avg # of iterations =  2.1

     Threshold (ethr) on eigenvalues was too large:
     Diagonalizing with lowered threshold

     Davidson diagonalization with overlap
     c_bands:  1 eigenvalues not converged
     c_bands:  2 eigenvalues not converged
     c_bands:  1 eigenvalues not converged
     c_bands:  1 eigenvalues not converged
     c_bands:  1 eigenvalues not converged
     c_bands:  3 eigenvalues not converged
     c_bands:  2 eigenvalues not converged
     c_bands:  2 eigenvalues not converged
     c_bands:  2 eigenvalues not converged
     c_bands:  2 eigenvalues not converged
     c_bands:  3 eigenvalues not converged
     c_bands:  2 eigenvalues not converged
     c_bands:  1 eigenvalues not converged
     c_bands:  3 eigenvalues not converged
     c_bands:  3 eigenvalues not converged
     c_bands:  1 eigenvalues not converged
     c_bands:  2 eigenvalues not converged
     c_bands:  2 eigenvalues not converged
     c_bands:  3 eigenvalues not converged
     c_bands:  5 eigenvalues not converged
     c_bands:  1 eigenvalues not converged
     c_bands:  1 eigenvalues not converged
     c_bands:  1 eigenvalues not converged
     c_bands:  1 eigenvalues not converged
     c_bands:  2 eigenvalues not converged
     c_bands:  1 eigenvalues not converged
     ethr =  2.19E-05,  avg # of iterations = 17.4

     total cpu time spent up to now is      131.1 secs

     total energy              =    -306.86706451 Ry
     estimated scf accuracy    <       0.02012758 Ry

     iteration #  2     ecut=    90.00 Ry     beta= 0.70
     Davidson diagonalization with overlap
     ethr =  9.15E-05,  avg # of iterations =  4.4

     total cpu time spent up to now is      156.2 secs

     total energy              =    -306.87203537 Ry
     estimated scf accuracy    <       0.00138516 Ry

     iteration #  3     ecut=    90.00 Ry     beta= 0.70
     Davidson diagonalization with overlap
     c_bands:  3 eigenvalues not converged
     ethr =  6.30E-06,  avg # of iterations =  8.1

     total cpu time spent up to now is      194.9 secs

     total energy              =    -306.87310515 Ry
     estimated scf accuracy    <       0.00033477 Ry

     iteration #  4     ecut=    90.00 Ry     beta= 0.70
     Davidson diagonalization with overlap
     c_bands:  2 eigenvalues not converged
     c_bands:  1 eigenvalues not converged
     ethr =  1.52E-06,  avg # of iterations =  6.9

     total cpu time spent up to now is      227.2 secs

     total energy              =    -306.87328940 Ry
     estimated scf accuracy    <       0.00016586 Ry

     iteration #  5     ecut=    90.00 Ry     beta= 0.70
     Davidson diagonalization with overlap
     c_bands:  1 eigenvalues not converged
     ethr =  7.54E-07,  avg # of iterations =  6.6

     total cpu time spent up to now is      256.5 secs

     total energy              =    -306.87337680 Ry
     estimated scf accuracy    <       0.00001769 Ry

     iteration #  6     ecut=    90.00 Ry     beta= 0.70
     Davidson diagonalization with overlap
     ethr =  8.04E-08,  avg # of iterations =  7.7

     total cpu time spent up to now is      288.5 secs

     total energy              =    -306.87337675 Ry
     estimated scf accuracy    <       0.00002003 Ry

     iteration #  7     ecut=    90.00 Ry     beta= 0.70
     Davidson diagonalization with overlap
     ethr =  8.04E-08,  avg # of iterations =  6.0

     total cpu time spent up to now is      316.4 secs

     total energy              =    -306.87338440 Ry
     estimated scf accuracy    <       0.00000189 Ry

     iteration #  8     ecut=    90.00 Ry     beta= 0.70
     Davidson diagonalization with overlap
     ethr =  8.60E-09,  avg # of iterations =  7.8

     total cpu time spent up to now is      347.3 secs

     total energy              =    -306.87338582 Ry
     estimated scf accuracy    <       0.00000012 Ry

     iteration #  9     ecut=    90.00 Ry     beta= 0.70
     Davidson diagonalization with overlap
     ethr =  5.61E-10,  avg # of iterations = 11.4

     total cpu time spent up to now is      393.4 secs

     total energy              =    -306.87338608 Ry
     estimated scf accuracy    <       0.00000012 Ry

     iteration # 10     ecut=    90.00 Ry     beta= 0.70
     Davidson diagonalization with overlap
     ethr =  5.28E-10,  avg # of iterations =  1.3

     total cpu time spent up to now is      411.8 secs

     total energy              =    -306.87338602 Ry
     estimated scf accuracy    <       0.00000007 Ry

     iteration # 11     ecut=    90.00 Ry     beta= 0.70
     Davidson diagonalization with overlap
     c_bands:  1 eigenvalues not converged
     ethr =  3.33E-10,  avg # of iterations =  7.2

     total cpu time spent up to now is      443.0 secs

     total energy              =    -306.87338606 Ry
     estimated scf accuracy    <       0.00000007 Ry

     iteration # 12     ecut=    90.00 Ry     beta= 0.70
     Davidson diagonalization with overlap
     ethr =  2.96E-10,  avg # of iterations =  2.0

     total cpu time spent up to now is      462.4 secs

     total energy              =    -306.87338607 Ry
     estimated scf accuracy    <       0.00000001 Ry

     iteration # 13     ecut=    90.00 Ry     beta= 0.70
     Davidson diagonalization with overlap
     ethr =  5.82E-11,  avg # of iterations =  6.7

     total cpu time spent up to now is      489.7 secs

     End of self-consistent calculation

          k = 0.0000 0.0000 0.0000 (  4867 PWs)   bands (ev):

   -40.1386 -40.0743 -19.2236 -18.8901 -18.8901 -18.8317 -18.8317 -18.8147
     3.7531   7.1393   9.3006  10.3504  10.3504  10.4606  10.7541

          k = 0.0000 0.0000 0.0784 (  4848 PWs)   bands (ev):

   -40.1362 -40.0768 -19.2085 -18.8879 -18.8879 -18.8339 -18.8339 -18.8308
     3.8544   6.9861   9.2696  10.3076  10.3077  10.3953  10.6985

          k = 0.0000 0.0000 0.1568 (  4854 PWs)   bands (ev):

   -40.1293 -40.0838 -19.1654 -18.8816 -18.8816 -18.8763 -18.8403 -18.8403
     4.1513   6.5412   9.2776  10.2127  10.2452  10.2455  10.5635

          k = 0.0000 0.0000 0.2353 (  4890 PWs)   bands (ev):

   -40.1189 -40.0942 -19.1003 -18.9439 -18.8721 -18.8721 -18.8498 -18.8498
     4.6230   5.9063   9.4173   9.9500  10.2332  10.2335  10.4110

          k = 0.0000 0.0000-0.3137 (  4890 PWs)   bands (ev):

   -40.1066 -40.1066 -19.0226 -19.0226 -18.8609 -18.8609 -18.8609 -18.8609
     5.2302   5.2302   9.6631   9.6631  10.2913  10.2913  10.2913

          k = 0.0000 0.0962 0.0000 (  4873 PWs)   bands (ev):

   -40.1353 -40.0729 -19.2148 -18.9083 -18.8961 -18.8507 -18.8343 -18.8184
     3.9044   7.2693   9.1756  10.0811  10.4599  10.6277  10.6925

          k = 0.0000 0.0962 0.0784 (  4882 PWs)   bands (ev):

   -40.1330 -40.0753 -19.2006 -18.9057 -18.8938 -18.8588 -18.8366 -18.8281
     4.0042   7.1156   9.1477  10.0772  10.4054  10.5028  10.6319

          k = 0.0000 0.0962 0.1568 (  4879 PWs)   bands (ev):

   -40.1262 -40.0821 -19.1601 -18.8987 -18.8922 -18.8871 -18.8444 -18.8434
     4.2970   6.6685   9.1699  10.0830  10.2318  10.3321  10.6479

          k = 0.0000 0.0962 0.2353 (  4895 PWs)   bands (ev):

   -40.1161 -40.0923 -19.0991 -18.9535 -18.8865 -18.8771 -18.8586 -18.8534
     4.7624   6.0340   9.3304   9.9167  10.1297  10.3170  10.3752

          k = 0.0000 0.0962-0.3137 (  4906 PWs)   bands (ev):

   -40.1042 -40.1042 -19.0264 -19.0264 -18.8729 -18.8729 -18.8653 -18.8653
     5.3629   5.3629   9.5990   9.5990  10.2303  10.2305  10.3752

          k = 0.0000 0.1925 0.0000 (  4891 PWs)   bands (ev):

   -40.1261 -40.0694 -19.1896 -18.9584 -18.9122 -18.9019 -18.8418 -18.8296
     4.3436   7.6177   8.8896   9.6699  10.4045  10.7776  10.8104

          k = 0.0000 0.1925 0.0784 (  4894 PWs)   bands (ev):

   -40.1239 -40.0716 -19.1785 -18.9543 -18.9115 -18.9096 -18.8445 -18.8359
     4.4385   7.4642   8.8731   9.6893  10.3956  10.5402  10.6276

          k = 0.0000 0.1925 0.1568 (  4888 PWs)   bands (ev):

   -40.1178 -40.0777 -19.1469 -18.9478 -18.9347 -18.9020 -18.8524 -18.8522
     4.7174   7.0137   8.9340   9.7460  10.1704  10.4045  10.5369

          k = 0.0000 0.1925 0.2353 (  4884 PWs)   bands (ev):

   -40.1087 -40.0870 -19.0995 -18.9883 -18.9211 -18.8906 -18.8745 -18.8636
     5.1618   6.3875   9.1353   9.7343   9.9538  10.2563  10.5308

          k = 0.0000 0.1925-0.3137 (  4888 PWs)   bands (ev):

   -40.0978 -40.0978 -19.0436 -19.0436 -18.8985 -18.8985 -18.8771 -18.8771
     5.7376   5.7376   9.4314   9.4315  10.0752  10.0753  10.6018

          k = 0.0000 0.2887 0.0000 (  4872 PWs)   bands (ev):

   -40.1129 -40.0651 -19.1518 -19.0276 -18.9697 -18.9334 -18.8528 -18.8484
     5.0251   8.0246   8.5816   9.2456  10.1851  10.4659  10.5661

          k = 0.0000 0.2887 0.0784 (  4875 PWs)   bands (ev):

   -40.1111 -40.0669 -19.1483 -19.0189 -18.9788 -18.9303 -18.8559 -18.8517
     5.1104   7.8764   8.5924   9.2763  10.1575  10.4062  10.5792

          k = 0.0000 0.2887 0.1568 (  4877 PWs)   bands (ev):

   -40.1059 -40.0721 -19.1365 -19.0147 -18.9839 -18.9217 -18.8646 -18.8633
     5.3608   7.4429   8.7095   9.3528  10.0116  10.2953  10.6287

          k = 0.0000 0.2887 0.2353 (  4873 PWs)   bands (ev):

   -40.0982 -40.0799 -19.1146 -19.0471 -18.9523 -18.9086 -18.8853 -18.8778
     5.7598   6.8652   8.9362   9.3902   9.8528  10.1256  10.7296

          k = 0.0000 0.2887-0.3137 (  4882 PWs)   bands (ev):

   -40.0890 -40.0890 -19.0834 -19.0834 -18.9164 -18.9164 -18.8932 -18.8932
     6.2775   6.2775   9.2085   9.2085   9.9281   9.9281  10.8824

          k = 0.0000 0.3849 0.0000 (  4870 PWs)   bands (ev):

   -40.0987 -40.0618 -19.1074 -19.0974 -19.0353 -18.9539 -18.8736 -18.8643
     5.8645   8.1838   8.3321   8.9110  10.2109  10.2189  10.3538

          k = 0.0000 0.3849 0.0784 (  4858 PWs)   bands (ev):

   -40.0973 -40.0632 -19.1338 -19.0665 -19.0398 -18.9505 -18.8736 -18.8677
     5.9315   8.0424   8.4011   8.9526  10.0660  10.2975  10.4032

          k = 0.0000 0.3849 0.1568 (  4863 PWs)   bands (ev):

   -40.0933 -40.0672 -19.1505 -19.0791 -19.0063 -18.9409 -18.8778 -18.8775
     6.1276   7.7098   8.5620   9.0407   9.9204  10.2473  10.5484

          k = 0.0000 0.3849 0.2353 (  4864 PWs)   bands (ev):

   -40.0873 -40.0732 -19.1509 -19.1096 -18.9604 -18.9264 -18.8927 -18.8921
     6.4381   7.2808   8.7848   9.0943   9.8333  10.0783  10.7786

          k = 0.0000 0.3849-0.3137 (  4870 PWs)   bands (ev):

   -40.0802 -40.0802 -19.1359 -19.1359 -18.9208 -18.9208 -18.9093 -18.9093
     6.8364   6.8364   9.0009   9.0009   9.8949   9.8950  11.0735

          k = 0.0000 0.4811 0.0000 (  4838 PWs)   bands (ev):

   -40.0869 -40.0607 -19.1487 -19.0823 -19.0662 -18.9686 -18.9008 -18.8729
     6.7155   8.0181   8.1748   8.6614  10.0483  10.2125  10.4244

          k = 0.0000 0.4811 0.0784 (  4854 PWs)   bands (ev):

   -40.0859 -40.0617 -19.1628 -19.0961 -19.0413 -18.9650 -18.8974 -18.8766
     6.7472   7.9223   8.2738   8.6917  10.0536  10.2744  10.3781

          k = 0.0000 0.4811 0.1568 (  4866 PWs)   bands (ev):

   -40.0831 -40.0645 -19.1815 -19.1246 -18.9973 -18.9547 -18.8936 -18.8871
     6.8436   7.7268   8.4672   8.7886  10.0407  10.2553  10.4572

          k = 0.0000 0.4811 0.2353 (  4859 PWs)   bands (ev):

   -40.0788 -40.0688 -19.1878 -19.1553 -18.9538 -18.9393 -18.9027 -18.8995
     7.0054   7.4784   8.6982   8.8990   9.9839  10.1057  10.7505

          k = 0.0000 0.4811-0.3137 (  4862 PWs)   bands (ev):

   -40.0738 -40.0738 -19.1783 -19.1783 -18.9210 -18.9210 -18.9197 -18.9197
     7.2247   7.2247   8.8814   8.8814   9.9874   9.9874  11.1348

          k = 0.0000-0.5774 0.0000 (  4858 PWs)   bands (ev):

   -40.0819 -40.0609 -19.1675 -19.0992 -19.0468 -18.9739 -18.9150 -18.8761
     7.2299   7.7826   8.1216   8.5462   9.9875  10.1631  10.5236

          k = 0.0000-0.5774 0.0784 (  4862 PWs)   bands (ev):

   -40.0811 -40.0617 -19.1787 -19.1119 -19.0278 -18.9702 -18.9097 -18.8799
     7.2094   7.7595   8.2328   8.5435  10.0426  10.2286  10.4526

          k = 0.0000-0.5774 0.1568 (  4842 PWs)   bands (ev):

   -40.0789 -40.0640 -19.1958 -19.1411 -18.9886 -18.9597 -18.9018 -18.8906
     7.1942   7.6667   8.4960   8.5945  10.1385  10.2730  10.4217

          k = 0.0000-0.5774 0.2353 (  4866 PWs)   bands (ev):

   -40.0755 -40.0674 -19.2026 -19.1719 -18.9489 -18.9439 -18.9065 -18.9030
     7.2378   7.5101   8.7325   8.7645  10.0904  10.1458  10.7328

          k = 0.0000-0.5774-0.3137 (  4888 PWs)   bands (ev):

   -40.0714 -40.0714 -19.1943 -19.1943 -18.9253 -18.9253 -18.9188 -18.9188
     7.3504   7.3504   8.8502   8.8502  10.0614  10.0616  11.1432

          k = 0.0833 0.1443 0.0000 (  4879 PWs)   bands (ev):

   -40.1290 -40.0705 -19.1978 -18.9390 -18.9152 -18.8788 -18.8418 -18.8259
     4.1999   7.5107   8.9751   9.7817  10.4854  10.6892  10.7596

          k = 0.0833 0.1443 0.0784 (  4894 PWs)   bands (ev):

   -40.1268 -40.0727 -19.1856 -18.9353 -18.9146 -18.8868 -18.8444 -18.8326
     4.2965   7.3568   8.9542   9.7967  10.4932  10.5086  10.5828

          k = 0.0833 0.1443 0.1568 (  4885 PWs)   bands (ev):

   -40.1205 -40.0791 -19.1508 -18.9286 -18.9249 -18.8968 -18.8517 -18.8484
     4.5804   6.9064   9.0024   9.8452  10.1967  10.4329  10.4906

          k = 0.0833 0.1443 0.2353 (  4888 PWs)   bands (ev):

   -40.1110 -40.0886 -19.0985 -18.9759 -18.9092 -18.8900 -18.8670 -18.8624
     5.0323   6.2757   9.1931   9.8104   9.9869  10.2855  10.4766

          k = 0.0833 0.1443-0.3137 (  4892 PWs)   bands (ev):

   -40.0999 -40.0999 -19.0368 -19.0368 -18.8915 -18.8915 -18.8736 -18.8736
     5.6173   5.6173   9.4859   9.4860  10.1159  10.1159  10.5325

          k = 0.0833 0.2406 0.0000 (  4875 PWs)   bands (ev):

   -40.1178 -40.0666 -19.1662 -18.9940 -18.9602 -18.9129 -18.8548 -18.8409
     4.7624   7.9079   8.6962   9.3708  10.2556  10.4609  10.7504

          k = 0.0833 0.2406 0.0784 (  4880 PWs)   bands (ev):

   -40.1159 -40.0685 -19.1589 -18.9880 -18.9642 -18.9161 -18.8579 -18.8443
     4.8520   7.7562   8.6920   9.3985  10.2648  10.3822  10.6757

          k = 0.0833 0.2406 0.1568 (  4879 PWs)   bands (ev):

   -40.1104 -40.0741 -19.1379 -18.9888 -18.9651 -18.9168 -18.8666 -18.8554
     5.1152   7.3073   8.7866   9.4739  10.0855  10.3011  10.6261

          k = 0.0833 0.2406 0.2353 (  4882 PWs)   bands (ev):

   -40.1021 -40.0824 -19.1052 -19.0231 -18.9403 -18.9102 -18.8799 -18.8730
     5.5351   6.7001   9.0093   9.5179   9.8707  10.1408  10.6781

          k = 0.0833 0.2406-0.3137 (  4882 PWs)   bands (ev):

   -40.0923 -40.0923 -19.0650 -19.0650 -18.9141 -18.9141 -18.8871 -18.8871
     6.0805   6.0805   9.2999   9.2999   9.9459   9.9459  10.7836

          k = 0.0833 0.3368 0.0000 (  4866 PWs)   bands (ev):

   -40.1041 -40.0628 -19.1248 -19.0622 -19.0149 -18.9444 -18.8686 -18.8632
     5.5301   8.2263   8.4406   8.9952  10.1518  10.2049  10.5101

          k = 0.0833 0.3368 0.0784 (  4859 PWs)   bands (ev):

   -40.1025 -40.0644 -19.1316 -19.0484 -19.0184 -18.9442 -18.8734 -18.8621
     5.6066   8.0779   8.4827   9.0329  10.0614  10.2715  10.4928

          k = 0.0833 0.3368 0.1568 (  4867 PWs)   bands (ev):

   -40.0981 -40.0689 -19.1371 -19.0539 -18.9981 -18.9396 -18.8841 -18.8659
     5.8309   7.6811   8.6305   9.1229   9.9186  10.2208  10.5628

          k = 0.0833 0.3368 0.2353 (  4871 PWs)   bands (ev):

   -40.0914 -40.0756 -19.1303 -19.0825 -18.9600 -18.9288 -18.8979 -18.8795
     6.1875   7.1694   8.8563   9.1952   9.7847  10.0283  10.7530

          k = 0.0833 0.3368-0.3137 (  4874 PWs)   bands (ev):

   -40.0835 -40.0835 -19.1107 -19.1107 -18.9301 -18.9301 -18.8987 -18.8987
     6.6485   6.6485   9.0927   9.0927   9.8295   9.8295  10.9899

          k = 0.0833 0.4330 0.0000 (  4849 PWs)   bands (ev):

   -40.0909 -40.0608 -19.1225 -19.0807 -19.0627 -18.9688 -18.8906 -18.8806
     6.3937   8.1981   8.2571   8.7311  10.0372  10.2778  10.3217

          k = 0.0833 0.4330 0.0784 (  4855 PWs)   bands (ev):

   -40.0897 -40.0619 -19.1416 -19.0808 -19.0453 -18.9663 -18.8920 -18.8799
     6.4459   8.0660   8.3510   8.7822   9.9859  10.2614  10.3650

          k = 0.0833 0.4330 0.1568 (  4855 PWs)   bands (ev):

   -40.0865 -40.0652 -19.1614 -19.1049 -19.0036 -18.9560 -18.9010 -18.8786
     6.5986   7.8127   8.5201   8.8951   9.8825  10.1545  10.5178

          k = 0.0833 0.4330 0.2353 (  4870 PWs)   bands (ev):

   -40.0816 -40.0701 -19.1669 -19.1339 -18.9673 -18.9377 -18.9140 -18.8854
     6.8401   7.4888   8.7439   8.9889   9.7955   9.9686  10.7689

          k = 0.0833 0.4330-0.3137 (  4854 PWs)   bands (ev):

   -40.0758 -40.0758 -19.1568 -19.1568 -18.9424 -18.9424 -18.9034 -18.9034
     7.1484   7.1484   8.9429   8.9429   9.8130   9.8130  11.0945

          k = 0.0833 0.5292 0.0000 (  4857 PWs)   bands (ev):

   -40.0820 -40.0609 -19.1573 -19.0904 -19.0471 -18.9823 -18.9146 -18.8875
     7.1520   7.9462   8.1632   8.5449   9.9716  10.1217  10.5189

          k = 0.0833 0.5292 0.0784 (  4852 PWs)   bands (ev):

   -40.0812 -40.0617 -19.1685 -19.1036 -19.0298 -18.9768 -18.9117 -18.8887
     7.1567   7.8947   8.2655   8.5668   9.9871  10.1289  10.5058

          k = 0.0833 0.5292 0.1568 (  4847 PWs)   bands (ev):

   -40.0789 -40.0640 -19.1856 -19.1326 -18.9989 -18.9586 -18.9145 -18.8881
     7.1883   7.7695   8.4846   8.6719   9.9879  10.0677  10.5782

          k = 0.0833 0.5292 0.2353 (  4860 PWs)   bands (ev):

   -40.0755 -40.0674 -19.1927 -19.1630 -18.9726 -18.9339 -18.9254 -18.8901
     7.2722   7.5932   8.7230   8.8465   9.8813   9.9532  10.8215

          k = 0.0833 0.5292-0.3137 (  4862 PWs)   bands (ev):

   -40.0714 -40.0714 -19.1848 -19.1848 -18.9501 -18.9501 -18.9038 -18.9038
     7.4137   7.4137   8.8914   8.8914   9.8450   9.8451  11.1717

          k = 0.1667 0.2887 0.0000 (  4869 PWs)   bands (ev):

   -40.1060 -40.0632 -19.1308 -19.0321 -19.0244 -18.9331 -18.8784 -18.8598
     5.4164   8.2629   8.4955   8.9991  10.1423  10.1605  10.5990

          k = 0.1667 0.2887 0.0784 (  4864 PWs)   bands (ev):

   -40.1044 -40.0649 -19.1326 -19.0285 -19.0188 -18.9382 -18.8814 -18.8591
     5.4961   8.1097   8.5251   9.0328  10.1102  10.1914  10.5441

          k = 0.1667 0.2887 0.1568 (  4882 PWs)   bands (ev):

   -40.0998 -40.0695 -19.1316 -19.0440 -18.9877 -18.9439 -18.8895 -18.8625
     5.7301   7.6828   8.6671   9.1257   9.9606  10.1820  10.5361

          k = 0.1667 0.2887 0.2353 (  4867 PWs)   bands (ev):

   -40.0928 -40.0765 -19.1205 -19.0704 -18.9533 -18.9409 -18.8988 -18.8757
     6.1030   7.1367   8.8948   9.2233   9.7777   9.9869  10.7099

          k = 0.1667 0.2887-0.3137 (  4878 PWs)   bands (ev):

   -40.0846 -40.0846 -19.0987 -19.0987 -18.9362 -18.9362 -18.8950 -18.8950
     6.5867   6.5867   9.1385   9.1385   9.7860   9.7860  10.9337

          k = 0.1667 0.3849 0.0000 (  4860 PWs)   bands (ev):

   -40.0931 -40.0609 -19.0886 -19.0878 -19.0589 -18.9656 -18.9008 -18.8853
     6.2279   8.3438   8.4189   8.6999   9.9481  10.2289  10.3574

          k = 0.1667 0.3849 0.0784 (  4860 PWs)   bands (ev):

   -40.0919 -40.0622 -19.1182 -19.0788 -19.0350 -18.9703 -18.9050 -18.8796
     6.2911   8.2249   8.4785   8.7453   9.9119  10.2525  10.3069

          k = 0.1667 0.3849 0.1568 (  4866 PWs)   bands (ev):

   -40.0884 -40.0657 -19.1387 -19.0928 -18.9967 -18.9712 -18.9136 -18.8739
     6.4760   7.9367   8.6235   8.8543   9.8161  10.0736  10.4325

          k = 0.1667 0.3849 0.2353 (  4864 PWs)   bands (ev):

   -40.0832 -40.0709 -19.1442 -19.1151 -18.9759 -18.9571 -18.9155 -18.8788
     6.7678   7.5498   8.8257   8.9799   9.6878   9.8305  10.6657

          k = 0.1667 0.3849-0.3137 (  4862 PWs)   bands (ev):

   -40.0770 -40.0770 -19.1350 -19.1350 -18.9620 -18.9620 -18.8962 -18.8962
     7.1398   7.1398   8.9946   8.9946   9.6570   9.6570  10.9746

          k = 0.1667 0.4811 0.0000 (  4843 PWs)   bands (ev):

   -40.0821 -40.0608 -19.1309 -19.0751 -19.0478 -18.9970 -18.9159 -18.9140
     7.0540   8.2454   8.2562   8.5331   9.8647  10.1068  10.4866

          k = 0.1667 0.4811 0.0784 (  4857 PWs)   bands (ev):

   -40.0813 -40.0616 -19.1414 -19.0917 -19.0299 -18.9916 -18.9250 -18.9009
     7.0892   8.1450   8.3474   8.6045   9.8370  10.0437  10.5050

          k = 0.1667 0.4811 0.1568 (  4860 PWs)   bands (ev):

   -40.0789 -40.0639 -19.1591 -19.1173 -19.0158 -18.9668 -18.9335 -18.8872
     7.1926   7.9878   8.5094   8.7651   9.7479   9.8693  10.5928

          k = 0.1667 0.4811 0.2353 (  4857 PWs)   bands (ev):

   -40.0755 -40.0674 -19.1678 -19.1436 -19.0011 -18.9645 -18.9183 -18.8836
     7.3562   7.7853   8.7382   8.9338   9.6188   9.6378  10.7802

          k = 0.1667 0.4811-0.3137 (  4858 PWs)   bands (ev):

   -40.0714 -40.0714 -19.1623 -19.1623 -18.9824 -18.9824 -18.8946 -18.8946
     7.5632   7.5632   8.9472   8.9472   9.5241   9.5241  11.0646

          k = 0.1667 0.5774 0.0000 (  4854 PWs)   bands (ev):

   -40.0771 -40.0617 -19.1464 -19.0794 -19.0271 -19.0104 -18.9302 -18.9212
     7.5565   8.0289   8.2284   8.4380   9.9088   9.9404  10.6148

          k = 0.1667 0.5774 0.0784 (  4857 PWs)   bands (ev):

   -40.0765 -40.0623 -19.1547 -19.0932 -19.0323 -18.9870 -18.9368 -18.9103
     7.5484   8.0160   8.3205   8.4702   9.8724   9.9048  10.6278

          k = 0.1667 0.5774 0.1568 (  4857 PWs)   bands (ev):

   -40.0748 -40.0640 -19.1699 -19.1232 -19.0265 -18.9501 -18.9499 -18.8941
     7.5548   7.9542   8.5518   8.5905   9.7659   9.7725  10.7056

          k = 0.1667 0.5774 0.2353 (  4855 PWs)   bands (ev):

   -40.0723 -40.0664 -19.1780 -19.1527 -19.0107 -18.9687 -18.9161 -18.8866
     7.6094   7.8404   8.7976   8.8352   9.5537   9.5939  10.8842

          k = 0.1667 0.5774-0.3137 (  4846 PWs)   bands (ev):

   -40.0694 -40.0694 -19.1724 -19.1724 -18.9901 -18.9901 -18.8937 -18.8937
     7.7125   7.7125   8.9776   8.9776   9.4319   9.4319  11.1537

          k = 0.2500 0.4330 0.0000 (  4857 PWs)   bands (ev):

   -40.0821 -40.0608 -19.1081 -19.0784 -19.0481 -18.9963 -18.9368 -18.9136
     7.0183   8.3092   8.4411   8.4817   9.7887  10.1169  10.4535

          k = 0.2500 0.4330 0.0784 (  4864 PWs)   bands (ev):

   -40.0813 -40.0616 -19.1101 -19.1064 -19.0158 -19.0065 -18.9392 -18.9030
     7.0651   8.2471   8.4782   8.5579   9.7727  10.0125  10.4637

          k = 0.2500 0.4330 0.1568 (  4866 PWs)   bands (ev):

   -40.0790 -40.0639 -19.1348 -19.1193 -19.0177 -18.9828 -18.9386 -18.8872
     7.2002   8.1094   8.5878   8.7164   9.7061   9.7691  10.5205

          k = 0.2500 0.4330 0.2353 (  4866 PWs)   bands (ev):

   -40.0755 -40.0674 -19.1492 -19.1355 -19.0138 -18.9838 -18.9155 -18.8819
     7.4069   7.9052   8.7579   8.8929   9.5114   9.5699  10.6798

          k = 0.2500 0.4330-0.3137 (  4854 PWs)   bands (ev):

   -40.0714 -40.0714 -19.1484 -19.1484 -18.9995 -18.9995 -18.8919 -18.8919
     7.6560   7.6560   8.9261   8.9261   9.4298   9.4298  10.9651

          k = 0.2500 0.5292 0.0000 (  4866 PWs)   bands (ev):

   -40.0737 -40.0628 -19.1233 -19.0672 -19.0310 -19.0119 -18.9595 -18.9428
     7.7095   8.2590   8.3109   8.3763   9.7629   9.8912  10.6775

          k = 0.2500 0.5292 0.0784 (  4866 PWs)   bands (ev):

   -40.0733 -40.0632 -19.1263 -19.0860 -19.0465 -18.9865 -18.9638 -18.9262
     7.7377   8.2317   8.3437   8.4650   9.7226   9.7960  10.6816

          k = 0.2500 0.5292 0.1568 (  4872 PWs)   bands (ev):

   -40.0721 -40.0643 -19.1387 -19.1131 -19.0561 -18.9857 -18.9390 -18.9019
     7.8157   8.1882   8.4677   8.6483   9.5466   9.6085  10.7170

          k = 0.2500 0.5292 0.2353 (  4859 PWs)   bands (ev):

   -40.0703 -40.0661 -19.1510 -19.1372 -19.0462 -19.0044 -18.9073 -18.8875
     7.9248   8.1284   8.6721   8.8861   9.2466   9.4055  10.8311

          k = 0.2500 0.5292-0.3137 (  4876 PWs)   bands (ev):

   -40.0682 -40.0682 -19.1512 -19.1512 -19.0264 -19.0264 -18.8890 -18.8890
     8.0378   8.0378   8.9374   8.9374   9.1554   9.1554  11.0607

          k = 0.3333 0.5774 0.0000 (  4878 PWs)   bands (ev):

   -40.0671 -40.0671 -19.1138 -19.0524 -19.0524 -18.9853 -18.9761 -18.9761
     8.1580   8.1580   8.2618   8.3473   9.7597   9.7597  10.7724

          k = 0.3333 0.5774 0.0784 (  4857 PWs)   bands (ev):

   -40.0671 -40.0671 -19.1089 -19.0739 -19.0739 -18.9902 -18.9543 -18.9543
     8.2038   8.2038   8.2807   8.3659   9.6821   9.6821  10.7710

          k = 0.3333 0.5774 0.1568 (  4875 PWs)   bands (ev):

   -40.0670 -40.0670 -19.1070 -19.1070 -19.0952 -19.0043 -18.9205 -18.9205
     8.3311   8.3341   8.3341   8.4088   9.4817   9.4817  10.7879

          k = 0.3333 0.5774 0.2353 (  4863 PWs)   bands (ev):

   -40.0670 -40.0670 -19.1310 -19.1310 -19.0745 -19.0253 -18.8959 -18.8959
     8.3933   8.4432   8.5219   8.5219   9.2316   9.2316  10.8742

          k = 0.3333 0.5774-0.3137 (  4866 PWs)   bands (ev):

   -40.0670 -40.0670 -19.1396 -19.1396 -19.0499 -19.0499 -18.8871 -18.8871
     8.4388   8.4388   8.6525   8.6525   9.0772   9.0772  11.0787

     the Fermi energy is     8.8143 ev

!    total energy              =    -306.87338608 Ry
     total all-electron energy =     -3050.014157 Ry
     estimated scf accuracy    <          5.0E-11 Ry
     smearing contrib. (-TS)   =      -0.00104018 Ry
     internal energy E=F+TS    =    -306.87234589 Ry

     The total energy is F=E-TS. E is the sum of the following terms:
     one-electron contribution =     -74.40799244 Ry
     hartree contribution      =      42.28585670 Ry
     xc contribution           =     -34.52737483 Ry
     ewald contribution        =    -126.46581261 Ry
     one-center paw contrib.   =    -113.75702271 Ry

     convergence has been achieved in  13 iterations

     Forces acting on atoms (cartesian axes, Ry/au):

     atom    1 type  1   force =    -0.00000000    0.00000000    0.00000000
     atom    2 type  1   force =     0.00000000   -0.00000000    0.00000000
     The non-local contrib.  to forces
     atom    1 type  1   force =    -0.00000000   -0.00000000    0.00000000
     atom    2 type  1   force =     0.00000000   -0.00000000    0.00000000
     The ionic contribution  to forces
     atom    1 type  1   force =     0.00000000   -0.00000000    0.00000000
     atom    2 type  1   force =    -0.00000000    0.00000000    0.00000000
     The local contribution  to forces
     atom    1 type  1   force =     0.00000000    0.00000000    0.00000000
     atom    2 type  1   force =    -0.00000000    0.00000000    0.00000000
     The core correction contribution to forces
     atom    1 type  1   force =    -0.00000000   -0.00000000    0.00000000
     atom    2 type  1   force =     0.00000000   -0.00000000    0.00000000
     The Hubbard contrib.    to forces
     atom    1 type  1   force =     0.00000000    0.00000000    0.00000000
     atom    2 type  1   force =     0.00000000    0.00000000    0.00000000
     The SCF correction term to forces
     atom    1 type  1   force =     0.00000000   -0.00000000   -0.00000000
     atom    2 type  1   force =    -0.00000000   -0.00000000    0.00000000

     Total force =     0.000000     Total SCF correction =     0.000000


     Computing stress (Cartesian axis) and pressure

          total   stress  (Ry/bohr**3)                   (kbar)     P=      -54.92
  -0.00033309   0.00000000   0.00000000          -49.00        0.00        0.00
   0.00000000  -0.00033309  -0.00000000            0.00      -49.00       -0.00
   0.00000000  -0.00000000  -0.00045386            0.00       -0.00      -66.76


     BFGS Geometry Optimization
     Energy error            =      0.0E+00 Ry
     Gradient error          =      1.6E-27 Ry/Bohr
     Cell gradient error     =      6.7E+01 kbar

     number of scf cycles    =   1
     number of bfgs steps    =   0

     enthalpy           new  =    -306.8733860771 Ry

     new trust radius        =       0.0416910894 bohr
     new conv_thr            =       0.0000000100 Ry

     new unit-cell volume =    328.16082 a.u.^3 (    48.62842 Ang^3 )
     density =      3.04568 g/cm^3

CELL_PARAMETERS (alat=  6.25310370)
   0.991672752   0.000000000   0.000000000
  -0.495836376   0.858813795  -0.000000000
   0.000000000  -0.000000000   1.575913745

ATOMIC_POSITIONS (crystal)
Sc           -0.0000000000        0.0000000000       -0.0000000000
Sc            0.6666666667        0.3333333333        0.5000000000



     Writing config-only to output data dir sc_vcrelax.out/scandium.save/
     NEW-OLD atomic charge density approx. for the potential

     Check: negative core charge=   -0.000009
     extrapolated charge   21.37235, renormalised to   22.00000

     total cpu time spent up to now is      514.2 secs

     Self-consistent Calculation

     iteration #  1     ecut=    90.00 Ry     beta= 0.70
     Davidson diagonalization with overlap
     c_bands:  1 eigenvalues not converged
     c_bands:  1 eigenvalues not converged
     c_bands:  1 eigenvalues not converged
     c_bands:  1 eigenvalues not converged
     c_bands:  2 eigenvalues not converged
     c_bands:  2 eigenvalues not converged
     c_bands:  3 eigenvalues not converged
     c_bands:  2 eigenvalues not converged
     c_bands:  2 eigenvalues not converged
     c_bands:  3 eigenvalues not converged
     c_bands:  4 eigenvalues not converged
     c_bands:  4 eigenvalues not converged
     c_bands:  4 eigenvalues not converged
     c_bands:  1 eigenvalues not converged
     c_bands:  1 eigenvalues not converged
     c_bands:  3 eigenvalues not converged
     c_bands:  4 eigenvalues not converged
     c_bands:  1 eigenvalues not converged
     c_bands:  1 eigenvalues not converged
     c_bands:  1 eigenvalues not converged
     c_bands:  1 eigenvalues not converged
     c_bands:  3 eigenvalues not converged
     c_bands:  2 eigenvalues not converged
     c_bands:  1 eigenvalues not converged
     c_bands:  2 eigenvalues not converged
     c_bands:  1 eigenvalues not converged
     c_bands:  3 eigenvalues not converged
     c_bands:  2 eigenvalues not converged
     c_bands:  5 eigenvalues not converged
     c_bands:  5 eigenvalues not converged
     c_bands:  5 eigenvalues not converged
     c_bands:  2 eigenvalues not converged
     c_bands:  2 eigenvalues not converged
     c_bands:  2 eigenvalues not converged
     c_bands:  3 eigenvalues not converged
     c_bands:  1 eigenvalues not converged
     c_bands:  3 eigenvalues not converged
     c_bands:  3 eigenvalues not converged
     c_bands:  3 eigenvalues not converged
     c_bands:  3 eigenvalues not converged
     c_bands:  2 eigenvalues not converged
     c_bands:  1 eigenvalues not converged
     c_bands:  3 eigenvalues not converged
     c_bands:  1 eigenvalues not converged
     c_bands:  1 eigenvalues not converged
     c_bands:  3 eigenvalues not converged
     c_bands:  4 eigenvalues not converged
     c_bands:  4 eigenvalues not converged
     c_bands:  2 eigenvalues not converged
     c_bands:  2 eigenvalues not converged
     c_bands:  1 eigenvalues not converged
     c_bands:  1 eigenvalues not converged
     c_bands:  2 eigenvalues not converged
     c_bands:  2 eigenvalues not converged
     c_bands:  1 eigenvalues not converged
     c_bands:  3 eigenvalues not converged
     c_bands:  1 eigenvalues not converged
     ethr =  1.00E-06,  avg # of iterations = 19.4

     total cpu time spent up to now is      604.5 secs

     total energy              =    -306.76583664 Ry
     estimated scf accuracy    <       0.07971514 Ry

     iteration #  2     ecut=    90.00 Ry     beta= 0.70
     Davidson diagonalization with overlap
     ethr =  3.62E-04,  avg # of iterations =  6.8

     total cpu time spent up to now is      643.6 secs

     total energy              =    -306.87942137 Ry
     estimated scf accuracy    <       0.13288997 Ry

     iteration #  3     ecut=    90.00 Ry     beta= 0.70
     Davidson diagonalization with overlap
     ethr =  3.62E-04,  avg # of iterations =  1.3

     total cpu time spent up to now is      662.0 secs

     total energy              =    -306.87406534 Ry
     estimated scf accuracy    <       0.04055898 Ry

     iteration #  4     ecut=    90.00 Ry     beta= 0.70
     Davidson diagonalization with overlap
     ethr =  1.84E-04,  avg # of iterations =  2.6

     total cpu time spent up to now is      682.9 secs

     total energy              =    -306.87295599 Ry
     estimated scf accuracy    <       0.01691903 Ry

     iteration #  5     ecut=    90.00 Ry     beta= 0.70
     Davidson diagonalization with overlap
     ethr =  7.69E-05,  avg # of iterations =  2.9

     total cpu time spent up to now is      703.9 secs

     total energy              =    -306.87497446 Ry
     estimated scf accuracy    <       0.00662123 Ry

     iteration #  6     ecut=    90.00 Ry     beta= 0.70
     Davidson diagonalization with overlap
     ethr =  3.01E-05,  avg # of iterations =  4.9

     total cpu time spent up to now is      727.6 secs

     total energy              =    -306.87659913 Ry
     estimated scf accuracy    <       0.00377492 Ry

     iteration #  7     ecut=    90.00 Ry     beta= 0.70
     Davidson diagonalization with overlap
     ethr =  1.72E-05,  avg # of iterations =  2.7

     total cpu time spent up to now is      749.0 secs

     total energy              =    -306.87750006 Ry
     estimated scf accuracy    <       0.00296213 Ry

     iteration #  8     ecut=    90.00 Ry     beta= 0.70
     Davidson diagonalization with overlap
     ethr =  1.35E-05,  avg # of iterations =  1.7

     total cpu time spent up to now is      768.5 secs

     total energy              =    -306.87826659 Ry
     estimated scf accuracy    <       0.00359758 Ry

     iteration #  9     ecut=    90.00 Ry     beta= 0.70
     Davidson diagonalization with overlap
     ethr =  1.35E-05,  avg # of iterations =  1.1

     total cpu time spent up to now is      786.7 secs

     total energy              =    -306.87607712 Ry
     estimated scf accuracy    <       0.00464892 Ry

     iteration # 10     ecut=    90.00 Ry     beta= 0.70
     Davidson diagonalization with overlap
     ethr =  1.35E-05,  avg # of iterations =  2.1

     total cpu time spent up to now is      808.2 secs

     total energy              =    -306.87672490 Ry
     estimated scf accuracy    <       0.00148090 Ry

     iteration # 11     ecut=    90.00 Ry     beta= 0.70
     Davidson diagonalization with overlap
     ethr =  6.73E-06,  avg # of iterations =  2.0

     total cpu time spent up to now is      828.0 secs

     total energy              =    -306.87696033 Ry
     estimated scf accuracy    <       0.00174203 Ry

     iteration # 12     ecut=    90.00 Ry     beta= 0.70
     Davidson diagonalization with overlap
     ethr =  6.73E-06,  avg # of iterations =  1.1

     total cpu time spent up to now is      846.5 secs

     total energy              =    -306.87721322 Ry
     estimated scf accuracy    <       0.00190144 Ry

     iteration # 13     ecut=    90.00 Ry     beta= 0.70
     Davidson diagonalization with overlap
     ethr =  6.73E-06,  avg # of iterations =  1.1

     total cpu time spent up to now is      864.7 secs

     total energy              =    -306.87709759 Ry
     estimated scf accuracy    <       0.00223694 Ry

     iteration # 14     ecut=    90.00 Ry     beta= 0.70
     Davidson diagonalization with overlap
     ethr =  6.73E-06,  avg # of iterations =  1.2

     total cpu time spent up to now is      883.2 secs

     total energy              =    -306.87715594 Ry
     estimated scf accuracy    <       0.00188655 Ry

     iteration # 15     ecut=    90.00 Ry     beta= 0.70
     Davidson diagonalization with overlap
     ethr =  6.73E-06,  avg # of iterations =  1.0

     total cpu time spent up to now is      901.4 secs

     total energy              =    -306.87545423 Ry
     estimated scf accuracy    <       0.00192453 Ry

     iteration # 16     ecut=    90.00 Ry     beta= 0.70
     Davidson diagonalization with overlap
     ethr =  6.73E-06,  avg # of iterations =  7.0

     total cpu time spent up to now is      937.1 secs

     total energy              =    -306.87622381 Ry
     estimated scf accuracy    <       0.00229547 Ry

     iteration # 17     ecut=    90.00 Ry     beta= 0.70
     Davidson diagonalization with overlap
     ethr =  6.73E-06,  avg # of iterations =  2.3

     total cpu time spent up to now is      958.7 secs

     total energy              =    -306.87628213 Ry
     estimated scf accuracy    <       0.00033967 Ry

     iteration # 18     ecut=    90.00 Ry     beta= 0.70
     Davidson diagonalization with overlap
     ethr =  1.54E-06,  avg # of iterations =  5.1

     total cpu time spent up to now is      984.8 secs

     total energy              =    -306.87654051 Ry
     estimated scf accuracy    <       0.00000670 Ry

     iteration # 19     ecut=    90.00 Ry     beta= 0.70
     Davidson diagonalization with overlap
     ethr =  3.05E-08,  avg # of iterations = 10.5

     total cpu time spent up to now is     1027.1 secs

     total energy              =    -306.87656323 Ry
     estimated scf accuracy    <       0.00000207 Ry

     iteration # 20     ecut=    90.00 Ry     beta= 0.70
     Davidson diagonalization with overlap
     ethr =  9.40E-09,  avg # of iterations =  6.5

     total cpu time spent up to now is     1057.4 secs

     total energy              =    -306.87658311 Ry
     estimated scf accuracy    <       0.00001089 Ry

     iteration # 21     ecut=    90.00 Ry     beta= 0.70
     Davidson diagonalization with overlap
     ethr =  9.40E-09,  avg # of iterations =  9.1

     total cpu time spent up to now is     1094.1 secs

     total energy              =    -306.87653658 Ry
     estimated scf accuracy    <       0.00007522 Ry

     iteration # 22     ecut=    90.00 Ry     beta= 0.70
     Davidson diagonalization with overlap
     ethr =  9.40E-09,  avg # of iterations = 11.7

     total cpu time spent up to now is     1140.1 secs

     total energy              =    -306.87655924 Ry
     estimated scf accuracy    <       0.00000621 Ry

     iteration # 23     ecut=    90.00 Ry     beta= 0.70
     Davidson diagonalization with overlap
     ethr =  9.40E-09,  avg # of iterations =  4.7

     total cpu time spent up to now is     1167.2 secs

     total energy              =    -306.87655988 Ry
     estimated scf accuracy    <       0.00000031 Ry

     iteration # 24     ecut=    90.00 Ry     beta= 0.70
     Davidson diagonalization with overlap
     ethr =  1.42E-09,  avg # of iterations =  7.3

     total cpu time spent up to now is     1199.1 secs

     total energy              =    -306.87656020 Ry
     estimated scf accuracy    <       0.00000008 Ry

     iteration # 25     ecut=    90.00 Ry     beta= 0.70
     Davidson diagonalization with overlap
     ethr =  3.69E-10,  avg # of iterations =  3.6

     total cpu time spent up to now is     1221.3 secs

     total energy              =    -306.87656021 Ry
     estimated scf accuracy    <       0.00000002 Ry

     iteration # 26     ecut=    90.00 Ry     beta= 0.70
     Davidson diagonalization with overlap
     ethr =  1.02E-10,  avg # of iterations =  6.2

     total cpu time spent up to now is     1249.3 secs

     End of self-consistent calculation

          k = 0.0000 0.0000 0.0000 (  4867 PWs)   bands (ev):

   -39.7494 -39.6760 -18.8601 -18.4915 -18.4915 -18.4267 -18.4267 -18.4073
     4.0199   7.4284   9.6961  10.7018  10.7019  10.8367  11.1270

          k = 0.0000 0.0000 0.0793 (  4848 PWs)   bands (ev):

   -39.7467 -39.6788 -18.8434 -18.4891 -18.4891 -18.4292 -18.4292 -18.4251
     4.1242   7.2839   9.6515  10.6561  10.6561  10.7684  11.0679

          k = 0.0000 0.0000 0.1586 (  4854 PWs)   bands (ev):

   -39.7388 -39.6868 -18.7958 -18.4821 -18.4821 -18.4757 -18.4362 -18.4362
     4.4298   6.8527   9.6348  10.5777  10.5896  10.5898  10.9248

          k = 0.0000 0.0000 0.2380 (  4890 PWs)   bands (ev):

   -39.7269 -39.6988 -18.7238 -18.5506 -18.4716 -18.4716 -18.4468 -18.4468
     4.9140   6.2198   9.7620  10.3044  10.5766  10.5769  10.7638

          k = 0.0000-0.0000-0.3173 (  4890 PWs)   bands (ev):

   -39.7129 -39.7129 -18.6378 -18.6378 -18.4592 -18.4592 -18.4592 -18.4592
     5.5345   5.5345  10.0088  10.0088  10.6376  10.6376  10.6376

          k = 0.0000 0.0970 0.0000 (  4873 PWs)   bands (ev):

   -39.7457 -39.6745 -18.8503 -18.5115 -18.4982 -18.4475 -18.4294 -18.4114
     4.1747   7.5608   9.5597  10.4249  10.8152  11.0018  11.0681

          k = 0.0000 0.0970 0.0793 (  4882 PWs)   bands (ev):

   -39.7430 -39.6772 -18.8347 -18.5085 -18.4956 -18.4565 -18.4321 -18.4221
     4.2774   7.4163   9.5178  10.4202  10.7568  10.8738  11.0000

          k = 0.0000 0.0970 0.1586 (  4879 PWs)   bands (ev):

   -39.7354 -39.6850 -18.7900 -18.5008 -18.4934 -18.4882 -18.4403 -18.4396
     4.5785   6.9830   9.5163  10.4253  10.5912  10.6789  11.0115

          k = 0.0000 0.0970 0.2380 (  4895 PWs)   bands (ev):

   -39.7238 -39.6966 -18.7225 -18.5614 -18.4872 -18.4770 -18.4561 -18.4507
     5.0561   6.3501   9.6661  10.2651  10.4731  10.6629  10.7309

          k = 0.0000 0.0970-0.3173 (  4906 PWs)   bands (ev):

   -39.7102 -39.7102 -18.6421 -18.6421 -18.4720 -18.4720 -18.4639 -18.4639
     5.6696   5.6696   9.9374   9.9374  10.5785  10.5787  10.7242

          k = 0.0000 0.1941 0.0000 (  4891 PWs)   bands (ev):

   -39.7353 -39.6706 -18.8225 -18.5663 -18.5158 -18.5034 -18.4375 -18.4239
     4.6236   7.9143   9.2480   9.9969  10.7689  11.1439  11.1703

          k = 0.0000 0.1941 0.0793 (  4894 PWs)   bands (ev):

   -39.7329 -39.6731 -18.8103 -18.5617 -18.5142 -18.5129 -18.4405 -18.4308
     4.7211   7.7716   9.2171  10.0167  10.7599  10.9060  10.9830

          k = 0.0000 0.1941 0.1586 (  4888 PWs)   bands (ev):

   -39.7259 -39.6801 -18.7754 -18.5547 -18.5399 -18.5044 -18.4490 -18.4487
     5.0072   7.3351   9.2578  10.0746  10.5254  10.7702  10.8886

          k = 0.0000 0.1941 0.2380 (  4884 PWs)   bands (ev):

   -39.7155 -39.6907 -18.7231 -18.6000 -18.5246 -18.4917 -18.4730 -18.4618
     5.4622   6.7089   9.4541  10.0632  10.3018  10.6147  10.8827

          k = 0.0000 0.1941-0.3173 (  4888 PWs)   bands (ev):

   -39.7031 -39.7031 -18.6612 -18.6612 -18.4995 -18.4995 -18.4768 -18.4768
     6.0498   6.0498   9.7556   9.7556  10.4249  10.4249  10.9579

          k = 0.0000 0.2911 0.0000 (  4872 PWs)   bands (ev):

   -39.7205 -39.6659 -18.7807 -18.6419 -18.5774 -18.5390 -18.4493 -18.4448
     5.3180   8.3220   8.9117   9.5609  10.5476  10.8281  10.9165

          k = 0.0000 0.2911 0.0793 (  4875 PWs)   bands (ev):

   -39.7185 -39.6680 -18.7769 -18.6323 -18.5877 -18.5356 -18.4527 -18.4482
     5.4050   8.1880   8.9084   9.5927  10.5151  10.7714  10.9302

          k = 0.0000 0.2911 0.1586 (  4877 PWs)   bands (ev):

   -39.7126 -39.6739 -18.7638 -18.6281 -18.5934 -18.5259 -18.4625 -18.4607
     5.6604   7.7667   9.0138   9.6719  10.3604  10.6614  10.9819

          k = 0.0000 0.2911 0.2380 (  4873 PWs)   bands (ev):

   -39.7037 -39.6828 -18.7395 -18.6644 -18.5584 -18.5115 -18.4846 -18.4771
     6.0668   7.1876   9.2433   9.7104  10.1972  10.4839  11.0874

          k = 0.0000 0.2911-0.3173 (  4882 PWs)   bands (ev):

   -39.6933 -39.6933 -18.7048 -18.7048 -18.5188 -18.5188 -18.4943 -18.4943
     6.5929   6.5929   9.5235   9.5236  10.2767  10.2767  11.2476

          k = 0.0000 0.3881 0.0000 (  4870 PWs)   bands (ev):

   -39.7045 -39.6623 -18.7317 -18.7182 -18.6489 -18.5614 -18.4728 -18.4616
     6.1685   8.4703   8.6377   9.2278  10.5799  10.5812  10.6962

          k = 0.0000 0.3881 0.0793 (  4858 PWs)   bands (ev):

   -39.7029 -39.6639 -18.7600 -18.6848 -18.6542 -18.5577 -18.4726 -18.4655
     6.2358   8.3426   8.6963   9.2705  10.4239  10.6681  10.7478

          k = 0.0000 0.3881 0.1586 (  4863 PWs)   bands (ev):

   -39.6984 -39.6685 -18.7783 -18.6984 -18.6180 -18.5469 -18.4767 -18.4764
     6.4327   8.0170   8.8582   9.3614  10.2718  10.6162  10.8991

          k = 0.0000 0.3881 0.2380 (  4864 PWs)   bands (ev):

   -39.6915 -39.6754 -18.7787 -18.7325 -18.5674 -18.5308 -18.4928 -18.4926
     6.7445   7.5892   9.0900   9.4163  10.1817  10.4396  11.1390

          k = 0.0000 0.3881-0.3173 (  4870 PWs)   bands (ev):

   -39.6835 -39.6835 -18.7620 -18.7620 -18.5237 -18.5237 -18.5118 -18.5118
     7.1441   7.1441   9.3169   9.3169  10.2474  10.2474  11.4466

          k = 0.0000 0.4852 0.0000 (  4838 PWs)   bands (ev):

   -39.6912 -39.6613 -18.7743 -18.6999 -18.6861 -18.5775 -18.5030 -18.4709
     7.0226   8.2971   8.4638   8.9859  10.4117  10.5498  10.8019

          k = 0.0000 0.4852 0.0793 (  4854 PWs)   bands (ev):

   -39.6901 -39.6624 -18.7904 -18.7158 -18.6578 -18.5735 -18.4989 -18.4750
     7.0514   8.2069   8.5644   9.0133  10.4198  10.6144  10.7530

          k = 0.0000 0.4852 0.1586 (  4866 PWs)   bands (ev):

   -39.6868 -39.6657 -18.8115 -18.7478 -18.6086 -18.5620 -18.4942 -18.4867
     7.1414   8.0160   8.7660   9.1099  10.4094  10.6262  10.8050

          k = 0.0000 0.4852 0.2380 (  4859 PWs)   bands (ev):

   -39.6820 -39.6705 -18.8186 -18.7823 -18.5603 -18.5448 -18.5041 -18.5002
     7.2973   7.7677   9.0080   9.2250  10.3477  10.4761  11.1109

          k = 0.0000 0.4852-0.3173 (  4862 PWs)   bands (ev):

   -39.6762 -39.6762 -18.8080 -18.8080 -18.5245 -18.5245 -18.5225 -18.5225
     7.5137   7.5137   9.2030   9.2030  10.3532  10.3533  11.5119

          k = 0.0000-0.5822-0.0000 (  4858 PWs)   bands (ev):

   -39.6856 -39.6616 -18.7948 -18.7183 -18.6647 -18.5833 -18.5188 -18.4744
     7.5321   8.0661   8.4045   8.8731  10.3515  10.4987  10.9048

          k = 0.0000-0.5822 0.0793 (  4862 PWs)   bands (ev):

   -39.6847 -39.6625 -18.8076 -18.7328 -18.6432 -18.5792 -18.5126 -18.4786
     7.5037   8.0459   8.5274   8.8630  10.4127  10.5669  10.8300

          k = 0.0000-0.5822 0.1586 (  4842 PWs)   bands (ev):

   -39.6821 -39.6651 -18.8270 -18.7657 -18.5992 -18.5675 -18.5033 -18.4905
     7.4770   7.9556   8.8117   8.9042  10.5197  10.6418  10.7684

          k = 0.0000-0.5822 0.2380 (  4866 PWs)   bands (ev):

   -39.6782 -39.6690 -18.8347 -18.8004 -18.5549 -18.5499 -18.5083 -18.5041
     7.5153   7.7947   9.0445   9.0939  10.4546  10.5304  11.0929

          k = 0.0000-0.5822-0.3173 (  4888 PWs)   bands (ev):

   -39.6736 -39.6736 -18.8254 -18.8254 -18.5292 -18.5292 -18.5215 -18.5215
     7.6293   7.6293   9.1740   9.1740  10.4357  10.4357  11.5212

          k = 0.0840 0.1455 0.0000 (  4879 PWs)   bands (ev):

   -39.7387 -39.6718 -18.8316 -18.5449 -18.5191 -18.4783 -18.4376 -18.4197
     4.4768   7.8061   9.3412  10.1127  10.8505  11.0528  11.1198

          k = 0.0840 0.1455 0.0793 (  4894 PWs)   bands (ev):

   -39.7361 -39.6744 -18.8181 -18.5409 -18.5184 -18.4873 -18.4405 -18.4270
     4.5761   7.6624   9.3059  10.1280  10.8596  10.8729  10.9396

          k = 0.0840 0.1455 0.1586 (  4885 PWs)   bands (ev):

   -39.7289 -39.6817 -18.7797 -18.5337 -18.5292 -18.4987 -18.4486 -18.4444
     4.8676   7.2260   9.3325  10.1771  10.5529  10.7953  10.8449

          k = 0.0840 0.1455 0.2380 (  4888 PWs)   bands (ev):

   -39.7181 -39.6925 -18.7220 -18.5862 -18.5118 -18.4911 -18.4650 -18.4605
     5.3308   6.5958   9.5163  10.1439  10.3342  10.6422  10.8283

          k = 0.0840 0.1455-0.3173 (  4892 PWs)   bands (ev):

   -39.7054 -39.7054 -18.6537 -18.6537 -18.4921 -18.4921 -18.4729 -18.4729
     5.9280   5.9280   9.8139   9.8139  10.4650  10.4650  10.8865

          k = 0.0840 0.2426 0.0000 (  4875 PWs)   bands (ev):

   -39.7261 -39.6675 -18.7967 -18.6050 -18.5679 -18.5159 -18.4516 -18.4365
     5.0507   8.2074   9.0369   9.6873  10.6173  10.8127  11.1142

          k = 0.0840 0.2426 0.0793 (  4880 PWs)   bands (ev):

   -39.7238 -39.6698 -18.7887 -18.5984 -18.5723 -18.5196 -18.4551 -18.4400
     5.1424   8.0687   9.0179   9.7160  10.6238  10.7399  11.0342

          k = 0.0840 0.2426 0.1586 (  4879 PWs)   bands (ev):

   -39.7175 -39.6761 -18.7654 -18.5998 -18.5728 -18.5206 -18.4648 -18.4520
     5.4118   7.6330   9.0966   9.7940  10.4346  10.6658  10.9808

          k = 0.0840 0.2426 0.2380 (  4882 PWs)   bands (ev):

   -39.7081 -39.6857 -18.7293 -18.6381 -18.5453 -18.5131 -18.4793 -18.4715
     5.8406   7.0242   9.3193   9.8394  10.2152  10.4973  11.0355

          k = 0.0840 0.2426-0.3173 (  4882 PWs)   bands (ev):

   -39.6969 -39.6969 -18.6847 -18.6847 -18.5165 -18.5165 -18.4874 -18.4874
     6.3961   6.3961   9.6171   9.6171  10.2931  10.2931  11.1460

          k = 0.0840 0.3396 0.0000 (  4866 PWs)   bands (ev):

   -39.7106 -39.6634 -18.7509 -18.6796 -18.6270 -18.5507 -18.4665 -18.4613
     5.8311   8.5216   8.7562   9.3058  10.5166  10.5530  10.8679

          k = 0.0840 0.3396 0.0793 (  4859 PWs)   bands (ev):

   -39.7088 -39.6652 -18.7583 -18.6646 -18.6310 -18.5507 -18.4719 -18.4597
     5.9086   8.3893   8.7841   9.3450  10.4126  10.6351  10.8467

          k = 0.0840 0.3396 0.1586 (  4867 PWs)   bands (ev):

   -39.7037 -39.6704 -18.7641 -18.6709 -18.6088 -18.5455 -18.4837 -18.4636
     6.1360   8.0005   8.9290   9.4386  10.2637  10.5855  10.9164

          k = 0.0840 0.3396 0.2380 (  4871 PWs)   bands (ev):

   -39.6961 -39.6780 -18.7564 -18.7030 -18.5669 -18.5333 -18.4991 -18.4784
     6.4971   7.4879   9.1618   9.5137  10.1262  10.3830  11.1139

          k = 0.0840 0.3396-0.3173 (  4874 PWs)   bands (ev):

   -39.6871 -39.6871 -18.7346 -18.7346 -18.5343 -18.5343 -18.4998 -18.4998
     6.9630   6.9630   9.4071   9.4071  10.1746  10.1746  11.3604

          k = 0.0840 0.4366 0.0000 (  4849 PWs)   bands (ev):

   -39.6957 -39.6613 -18.7456 -18.7022 -18.6788 -18.5777 -18.4918 -18.4793
     6.7026   8.4814   8.5525   9.0489  10.3873  10.6276  10.6950

          k = 0.0840 0.4366 0.0793 (  4855 PWs)   bands (ev):

   -39.6944 -39.6627 -18.7675 -18.6998 -18.6614 -18.5748 -18.4927 -18.4789
     6.7539   8.3592   8.6408   9.1005  10.3386  10.6174  10.7292

          k = 0.0840 0.4366 0.1586 (  4855 PWs)   bands (ev):

   -39.6907 -39.6664 -18.7899 -18.7265 -18.6154 -18.5634 -18.5021 -18.4775
     6.9043   8.1103   8.8155   9.2172  10.2346  10.5148  10.8765

          k = 0.0840 0.4366 0.2380 (  4870 PWs)   bands (ev):

   -39.6851 -39.6720 -18.7960 -18.7590 -18.5753 -18.5428 -18.5165 -18.4848
     7.1430   7.7881   9.0509   9.3147  10.1446  10.3244  11.1340

          k = 0.0840 0.4366-0.3173 (  4854 PWs)   bands (ev):

   -39.6785 -39.6785 -18.7846 -18.7846 -18.5479 -18.5479 -18.5046 -18.5046
     7.4491   7.4491   9.2630   9.2630  10.1632  10.1632  11.4717

          k = 0.0840 0.5337 0.0000 (  4857 PWs)   bands (ev):

   -39.6856 -39.6616 -18.7837 -18.7087 -18.6650 -18.5924 -18.5184 -18.4868
     7.4584   8.2302   8.4471   8.8682  10.3304  10.4605  10.8991

          k = 0.0840 0.5337 0.0793 (  4852 PWs)   bands (ev):

   -39.6847 -39.6625 -18.7965 -18.7238 -18.6453 -18.5863 -18.5146 -18.4883
     7.4576   8.1815   8.5578   8.8854  10.3496  10.4716  10.8811

          k = 0.0840 0.5337 0.1586 (  4847 PWs)   bands (ev):

   -39.6821 -39.6651 -18.8159 -18.7565 -18.6107 -18.5660 -18.5171 -18.4878
     7.4792   8.0595   8.7902   8.9894  10.3507  10.4240  10.9443

          k = 0.0840 0.5337 0.2380 (  4860 PWs)   bands (ev):

   -39.6782 -39.6690 -18.8238 -18.7906 -18.5815 -18.5384 -18.5290 -18.4899
     7.5567   7.8806   9.0370   9.1749  10.2310  10.3234  11.1912

          k = 0.0840 0.5337-0.3173 (  4862 PWs)   bands (ev):

   -39.6736 -39.6736 -18.8150 -18.8150 -18.5564 -18.5564 -18.5050 -18.5050
     7.6975   7.6975   9.2169   9.2169  10.2041  10.2042  11.5544

          k = 0.1681 0.2911 0.0000 (  4869 PWs)   bands (ev):

   -39.7128 -39.6639 -18.7576 -18.6463 -18.6383 -18.5379 -18.4772 -18.4574
     5.7163   8.5643   8.8157   9.3044  10.5030  10.5053  10.9619

          k = 0.1681 0.2911 0.0793 (  4864 PWs)   bands (ev):

   -39.7109 -39.6658 -18.7595 -18.6429 -18.6317 -18.5439 -18.4806 -18.4564
     5.7974   8.4283   8.8294   9.3395  10.4535  10.5557  10.9030

          k = 0.1681 0.2911 0.1586 (  4882 PWs)   bands (ev):

   -39.7056 -39.6711 -18.7583 -18.6602 -18.5973 -18.5503 -18.4897 -18.4597
     6.0353   8.0086   8.9671   9.4363  10.3033  10.5447  10.8909

          k = 0.1681 0.2911 0.2380 (  4867 PWs)   bands (ev):

   -39.6977 -39.6790 -18.7459 -18.6898 -18.5594 -18.5468 -18.5001 -18.4740
     6.4139   7.4598   9.2009   9.5386  10.1169  10.3381  11.0711

          k = 0.1681 0.2911-0.3173 (  4878 PWs)   bands (ev):

   -39.6884 -39.6884 -18.7215 -18.7215 -18.5411 -18.5411 -18.4955 -18.4955
     6.9041   6.9041   9.4523   9.4523  10.1273  10.1273  11.3028

          k = 0.1681 0.3881 0.0000 (  4860 PWs)   bands (ev):

   -39.6982 -39.6615 -18.7110 -18.7077 -18.6753 -18.5735 -18.5015 -18.4858
     6.5384   8.6446   8.7144   9.0041  10.2873  10.5988  10.7157

          k = 0.1681 0.3881 0.0793 (  4860 PWs)   bands (ev):

   -39.6968 -39.6629 -18.7426 -18.6980 -18.6496 -18.5790 -18.5063 -18.4792
     6.6018   8.5289   8.7743   9.0518  10.2527  10.6198  10.6628

          k = 0.1681 0.3881 0.1586 (  4866 PWs)   bands (ev):

   -39.6928 -39.6669 -18.7653 -18.7136 -18.6075 -18.5800 -18.5159 -18.4723
     6.7871   8.2448   8.9244   9.1659  10.1571  10.4270  10.7936

          k = 0.1681 0.3881 0.2380 (  4864 PWs)   bands (ev):

   -39.6869 -39.6728 -18.7713 -18.7387 -18.5850 -18.5637 -18.5181 -18.4774
     7.0794   7.8607   9.1352   9.2974  10.0258  10.1742  11.0306

          k = 0.1681 0.3881-0.3173 (  4862 PWs)   bands (ev):

   -39.6799 -39.6799 -18.7610 -18.7610 -18.5695 -18.5695 -18.4965 -18.4965
     7.4515   7.4515   9.3125   9.3125   9.9937   9.9937  11.3489

          k = 0.1681 0.4852 0.0000 (  4843 PWs)   bands (ev):

   -39.6857 -39.6615 -18.7548 -18.6925 -18.6658 -18.6081 -18.5179 -18.5176
     7.3679   8.5336   8.5423   8.8470  10.2065  10.4586  10.8646

          k = 0.1681 0.4852 0.0793 (  4857 PWs)   bands (ev):

   -39.6848 -39.6624 -18.7668 -18.7116 -18.6450 -18.6024 -18.5283 -18.5024
     7.4010   8.4357   8.6367   8.9190  10.1815  10.3934  10.8804

          k = 0.1681 0.4852 0.1586 (  4860 PWs)   bands (ev):

   -39.6822 -39.6650 -18.7869 -18.7402 -18.6293 -18.5746 -18.5377 -18.4869
     7.4990   8.2812   8.8069   9.0861  10.0954  10.2136  10.9646

          k = 0.1681 0.4852 0.2380 (  4857 PWs)   bands (ev):

   -39.6782 -39.6690 -18.7967 -18.7697 -18.6129 -18.5719 -18.5210 -18.4826
     7.6568   8.0799   9.0489   9.2648   9.9609   9.9766  11.1536

          k = 0.1681 0.4852-0.3173 (  4858 PWs)   bands (ev):

   -39.6736 -39.6736 -18.7906 -18.7906 -18.5919 -18.5919 -18.4947 -18.4947
     7.8597   7.8597   9.2747   9.2747   9.8604   9.8604  11.4459

          k = 0.1681 0.5822 0.0000 (  4854 PWs)   bands (ev):

   -39.6801 -39.6626 -18.7718 -18.6969 -18.6428 -18.6230 -18.5357 -18.5236
     7.8645   8.3254   8.5089   8.7527  10.2664  10.2753  10.9968

          k = 0.1681 0.5822 0.0793 (  4857 PWs)   bands (ev):

   -39.6795 -39.6632 -18.7813 -18.7126 -18.6481 -18.5974 -18.5416 -18.5125
     7.8489   8.3149   8.6122   8.7810  10.2309  10.2410  11.0072

          k = 0.1681 0.5822 0.1586 (  4857 PWs)   bands (ev):

   -39.6775 -39.6651 -18.7985 -18.7464 -18.6412 -18.5561 -18.5559 -18.4945
     7.8448   8.2536   8.8651   8.8981  10.1082  10.1254  11.0816

          k = 0.1681 0.5822 0.2380 (  4855 PWs)   bands (ev):

   -39.6747 -39.6680 -18.8077 -18.7796 -18.6234 -18.5765 -18.5185 -18.4858
     7.8946   8.1339   9.1117   9.1689   9.8836   9.9495  11.2625

          k = 0.1681 0.5822-0.3173 (  4846 PWs)   bands (ev):

   -39.6713 -39.6713 -18.8016 -18.8016 -18.6003 -18.6003 -18.4937 -18.4937
     7.9996   7.9996   9.3102   9.3102   9.7694   9.7694  11.5400

          k = 0.2521 0.4366 0.0000 (  4857 PWs)   bands (ev):

   -39.6858 -39.6615 -18.7300 -18.6965 -18.6662 -18.6070 -18.5407 -18.5172
     7.3357   8.5965   8.7382   8.7843  10.1255  10.4716  10.8305

          k = 0.2521 0.4366 0.0793 (  4864 PWs)   bands (ev):

   -39.6849 -39.6624 -18.7322 -18.7288 -18.6291 -18.6187 -18.5434 -18.5050
     7.3818   8.5350   8.7766   8.8648  10.1107  10.3634  10.8390

          k = 0.2521 0.4366 0.1586 (  4866 PWs)   bands (ev):

   -39.6822 -39.6650 -18.7606 -18.7426 -18.6313 -18.5918 -18.5433 -18.4869
     7.5148   8.4011   8.8906   9.0327  10.0458  10.1105  10.8923

          k = 0.2521 0.4366 0.2380 (  4866 PWs)   bands (ev):

   -39.6783 -39.6690 -18.7766 -18.7610 -18.6268 -18.5929 -18.5178 -18.4807
     7.7178   8.2038   9.0691   9.2188   9.8416   9.9073  11.0512

          k = 0.2521 0.4366-0.3173 (  4854 PWs)   bands (ev):

   -39.6736 -39.6736 -18.7755 -18.7755 -18.6106 -18.6106 -18.4916 -18.4916
     7.9615   7.9615   9.2496   9.2496   9.7591   9.7591  11.3435

          k = 0.2521 0.5337 0.0000 (  4866 PWs)   bands (ev):

   -39.6763 -39.6638 -18.7467 -18.6841 -18.6450 -18.6261 -18.5653 -18.5496
     8.0245   8.5610   8.5892   8.6825  10.1023  10.2412  11.0610

          k = 0.2521 0.5337 0.0793 (  4866 PWs)   bands (ev):

   -39.6758 -39.6642 -18.7502 -18.7057 -18.6627 -18.5968 -18.5705 -18.5305
     8.0504   8.5272   8.6358   8.7699  10.0632  10.1430  11.0636

          k = 0.2521 0.5337 0.1586 (  4872 PWs)   bands (ev):

   -39.6744 -39.6656 -18.7643 -18.7360 -18.6735 -18.5945 -18.5439 -18.5031
     8.1225   8.4836   8.7692   8.9607   9.8906   9.9462  11.0961

          k = 0.2521 0.5337 0.2380 (  4859 PWs)   bands (ev):

   -39.6724 -39.6676 -18.7783 -18.7630 -18.6621 -18.6153 -18.5087 -18.4868
     8.2254   8.4241   8.9853   9.2094   9.5809   9.7415  11.2098

          k = 0.2521 0.5337-0.3173 (  4876 PWs)   bands (ev):

   -39.6700 -39.6700 -18.7787 -18.7787 -18.6399 -18.6399 -18.4884 -18.4884
     8.3346   8.3346   9.2643   9.2643   9.4843   9.4843  11.4450

          k = 0.3361 0.5822 0.0000 (  4878 PWs)   bands (ev):

   -39.6687 -39.6687 -18.7367 -18.6681 -18.6681 -18.5931 -18.5864 -18.5864
     8.4681   8.4681   8.5678   8.6219  10.1041  10.1041  11.1592

          k = 0.3361 0.5822 0.0793 (  4857 PWs)   bands (ev):

   -39.6687 -39.6687 -18.7313 -18.6927 -18.6927 -18.5986 -18.5616 -18.5616
     8.5143   8.5143   8.5869   8.6432  10.0252  10.0252  11.1565

          k = 0.3361 0.5822 0.1586 (  4875 PWs)   bands (ev):

   -39.6687 -39.6687 -18.7299 -18.7299 -18.7159 -18.6144 -18.5236 -18.5236
     8.6372   8.6458   8.6458   8.6930   9.8219   9.8219  11.1704

          k = 0.3361 0.5822 0.2380 (  4863 PWs)   bands (ev):

   -39.6687 -39.6687 -18.7567 -18.7567 -18.6928 -18.6378 -18.4961 -18.4961
     8.6981   8.7363   8.8337   8.8337   9.5701   9.5701  11.2555

          k = 0.3361 0.5822-0.3173 (  4866 PWs)   bands (ev):

   -39.6687 -39.6687 -18.7662 -18.7662 -18.6654 -18.6654 -18.4862 -18.4862
     8.7394   8.7394   8.9617   8.9617   9.4177   9.4177  11.4644

     the Fermi energy is     9.1315 ev

!    total energy              =    -306.87656023 Ry
     total all-electron energy =     -3050.017331 Ry
     estimated scf accuracy    <          2.6E-10 Ry
     smearing contrib. (-TS)   =      -0.00101271 Ry
     internal energy E=F+TS    =    -306.87554752 Ry

     The total energy is F=E-TS. E is the sum of the following terms:
     one-electron contribution =     -72.60551219 Ry
     hartree contribution      =      41.70522657 Ry
     xc contribution           =     -34.56374526 Ry
     ewald contribution        =    -127.65459788 Ry
     one-center paw contrib.   =    -113.75691875 Ry

     convergence has been achieved in  26 iterations

     Forces acting on atoms (cartesian axes, Ry/au):

     atom    1 type  1   force =     0.00000000    0.00000000    0.00000000
     atom    2 type  1   force =    -0.00000000   -0.00000000   -0.00000000
     The non-local contrib.  to forces
     atom    1 type  1   force =     0.00000000    0.00000000    0.00000000
     atom    2 type  1   force =     0.00000000   -0.00000000   -0.00000000
     The ionic contribution  to forces
     atom    1 type  1   force =     0.00000000   -0.00000000    0.00000000
     atom    2 type  1   force =    -0.00000000    0.00000000    0.00000000
     The local contribution  to forces
     atom    1 type  1   force =    -0.00000000    0.00000000    0.00000000
     atom    2 type  1   force =    -0.00000000    0.00000000    0.00000000
     The core correction contribution to forces
     atom    1 type  1   force =     0.00000000   -0.00000000    0.00000000
     atom    2 type  1   force =     0.00000000   -0.00000000   -0.00000000
     The Hubbard contrib.    to forces
     atom    1 type  1   force =     0.00000000    0.00000000    0.00000000
     atom    2 type  1   force =     0.00000000    0.00000000    0.00000000
     The SCF correction term to forces
     atom    1 type  1   force =     0.00000000   -0.00000000    0.00000000
     atom    2 type  1   force =     0.00000000   -0.00000000    0.00000000

     Total force =     0.000000     Total SCF correction =     0.000000


     Computing stress (Cartesian axis) and pressure

          total   stress  (Ry/bohr**3)                   (kbar)     P=      -42.32
  -0.00024846  -0.00000000  -0.00000000          -36.55       -0.00       -0.00
  -0.00000000  -0.00024846  -0.00000000           -0.00      -36.55       -0.00
  -0.00000000  -0.00000000  -0.00036616           -0.00       -0.00      -53.86

     Energy error            =      3.2E-03 Ry
     Gradient error          =      1.1E-27 Ry/Bohr
     Cell gradient error     =      5.4E+01 kbar

     number of scf cycles    =   2
     number of bfgs steps    =   1

     enthalpy           old  =    -306.8733860771 Ry
     enthalpy           new  =    -306.8765602263 Ry

     CASE: enthalpy          _new < enthalpy          _old

     new trust radius        =       0.0623707290 bohr
     new conv_thr            =            1.0E-10 Ry

     new unit-cell volume =    315.06298 a.u.^3 (    46.68752 Ang^3 )
     density =      3.17230 g/cm^3

CELL_PARAMETERS (alat=  6.25310370)
   0.980154298  -0.000000000  -0.000000000
  -0.490077149   0.848838521  -0.000000000
  -0.000000000  -0.000000000   1.548784363

ATOMIC_POSITIONS (crystal)
Sc            0.0000000000        0.0000000000       -0.0000000000
Sc            0.6666666667        0.3333333333        0.5000000000



     Writing config-only to output data dir sc_vcrelax.out/scandium.save/
     NEW-OLD atomic charge density approx. for the potential

     Check: negative core charge=   -0.000011
     extrapolated charge   21.08559, renormalised to   22.00000

     total cpu time spent up to now is     1273.7 secs

     Self-consistent Calculation

     iteration #  1     ecut=    90.00 Ry     beta= 0.70
     Davidson diagonalization with overlap
     c_bands:  1 eigenvalues not converged
     c_bands:  2 eigenvalues not converged
     c_bands:  1 eigenvalues not converged
     c_bands:  2 eigenvalues not converged
     c_bands:  1 eigenvalues not converged
     c_bands:  3 eigenvalues not converged
     c_bands:  3 eigenvalues not converged
     c_bands:  2 eigenvalues not converged
     c_bands:  1 eigenvalues not converged
     c_bands:  2 eigenvalues not converged
     c_bands:  2 eigenvalues not converged
     c_bands:  2 eigenvalues not converged
     c_bands:  3 eigenvalues not converged
     c_bands:  4 eigenvalues not converged
     c_bands:  2 eigenvalues not converged
     c_bands:  5 eigenvalues not converged
     c_bands:  5 eigenvalues not converged
     c_bands:  3 eigenvalues not converged
     c_bands:  5 eigenvalues not converged
     c_bands:  4 eigenvalues not converged
     c_bands:  4 eigenvalues not converged
     c_bands:  1 eigenvalues not converged
     c_bands:  4 eigenvalues not converged
     c_bands:  2 eigenvalues not converged
     c_bands:  4 eigenvalues not converged
     c_bands:  3 eigenvalues not converged
     c_bands:  3 eigenvalues not converged
     c_bands:  2 eigenvalues not converged
     c_bands:  2 eigenvalues not converged
     c_bands:  2 eigenvalues not converged
     c_bands:  5 eigenvalues not converged
     c_bands:  4 eigenvalues not converged
     c_bands:  3 eigenvalues not converged
     c_bands:  2 eigenvalues not converged
     c_bands:  3 eigenvalues not converged
     c_bands:  3 eigenvalues not converged
     c_bands:  3 eigenvalues not converged
     c_bands:  3 eigenvalues not converged
     c_bands:  3 eigenvalues not converged
     c_bands:  5 eigenvalues not converged
     c_bands:  3 eigenvalues not converged
     c_bands:  4 eigenvalues not converged
     c_bands:  5 eigenvalues not converged
     c_bands:  1 eigenvalues not converged
     c_bands:  4 eigenvalues not converged
     c_bands:  4 eigenvalues not converged
     c_bands:  5 eigenvalues not converged
     c_bands:  5 eigenvalues not converged
     c_bands:  5 eigenvalues not converged
     c_bands:  4 eigenvalues not converged
     c_bands:  1 eigenvalues not converged
     c_bands:  5 eigenvalues not converged
     c_bands:  3 eigenvalues not converged
     c_bands:  5 eigenvalues not converged
     c_bands:  5 eigenvalues not converged
     c_bands:  4 eigenvalues not converged
     c_bands:  3 eigenvalues not converged
     ethr =  1.00E-06,  avg # of iterations = 22.6

     total cpu time spent up to now is     1389.9 secs

     total energy              =    -306.64201325 Ry
     estimated scf accuracy    <       0.17254757 Ry

     iteration #  2     ecut=    90.00 Ry     beta= 0.70
     Davidson diagonalization with overlap
     ethr =  7.84E-04,  avg # of iterations =  7.0

     total cpu time spent up to now is     1429.2 secs

     total energy              =    -306.88647175 Ry
     estimated scf accuracy    <       0.27160140 Ry

     iteration #  3     ecut=    90.00 Ry     beta= 0.70
     Davidson diagonalization with overlap
     ethr =  7.84E-04,  avg # of iterations =  1.1

     total cpu time spent up to now is     1447.4 secs

     total energy              =    -306.87500418 Ry
     estimated scf accuracy    <       0.08191245 Ry

     iteration #  4     ecut=    90.00 Ry     beta= 0.70
     Davidson diagonalization with overlap
     ethr =  3.72E-04,  avg # of iterations =  2.6

     total cpu time spent up to now is     1468.3 secs

     total energy              =    -306.87298052 Ry
     estimated scf accuracy    <       0.03513879 Ry

     iteration #  5     ecut=    90.00 Ry     beta= 0.70
     Davidson diagonalization with overlap
     ethr =  1.60E-04,  avg # of iterations =  2.7

     total cpu time spent up to now is     1489.2 secs

     total energy              =    -306.87672024 Ry
     estimated scf accuracy    <       0.01599658 Ry

     iteration #  6     ecut=    90.00 Ry     beta= 0.70
     Davidson diagonalization with overlap
     ethr =  7.27E-05,  avg # of iterations =  4.3

     total cpu time spent up to now is     1512.1 secs

     total energy              =    -306.87999443 Ry
     estimated scf accuracy    <       0.01030941 Ry

     iteration #  7     ecut=    90.00 Ry     beta= 0.70
     Davidson diagonalization with overlap
     ethr =  4.69E-05,  avg # of iterations =  2.7

     total cpu time spent up to now is     1533.1 secs

     total energy              =    -306.88262656 Ry
     estimated scf accuracy    <       0.00856493 Ry

     iteration #  8     ecut=    90.00 Ry     beta= 0.70
     Davidson diagonalization with overlap
     ethr =  3.89E-05,  avg # of iterations =  1.5

     total cpu time spent up to now is     1552.1 secs

     total energy              =    -306.88235913 Ry
     estimated scf accuracy    <       0.01074095 Ry

     iteration #  9     ecut=    90.00 Ry     beta= 0.70
     Davidson diagonalization with overlap
     ethr =  3.89E-05,  avg # of iterations =  1.2

     total cpu time spent up to now is     1570.6 secs

     total energy              =    -306.87945911 Ry
     estimated scf accuracy    <       0.00947747 Ry

     iteration # 10     ecut=    90.00 Ry     beta= 0.70
     Davidson diagonalization with overlap
     ethr =  3.89E-05,  avg # of iterations =  1.5

     total cpu time spent up to now is     1589.5 secs

     total energy              =    -306.87774902 Ry
     estimated scf accuracy    <       0.00430957 Ry

[...]
     7.1180   9.2237   9.5695  10.1566  11.5068  11.6568  11.8074

          k = 0.0000 0.3947 0.1659 (  4375 PWs)   bands (ev):

   -38.5651 -38.5190 -17.7247 -17.6047 -17.4973 -17.4228 -17.3194 -17.3116
     7.3225   8.9438   9.7099  10.2675  11.3304  11.7445  11.8283

          k = 0.0000 0.3947 0.2488 (  4383 PWs)   bands (ev):

   -38.5545 -38.5296 -17.7242 -17.6557 -17.4284 -17.3993 -17.3433 -17.3295
     7.6458   8.5163   9.9742  10.3448  11.2221  11.5280  12.1013

          k = 0.0000 0.3947-0.3318 (  4402 PWs)   bands (ev):

   -38.5421 -38.5421 -17.6994 -17.6994 -17.3714 -17.3714 -17.3695 -17.3695
     8.0591   8.0591  10.2397  10.2397  11.2951  11.2951  12.4532

          k = 0.0000 0.4934 0.0000 (  4388 PWs)   bands (ev):

   -38.5561 -38.5100 -17.6960 -17.6078 -17.5874 -17.4639 -17.3571 -17.3079
     7.9012   9.0901   9.3344   9.8860  11.4378  11.5336  11.9744

          k = 0.0000 0.4934 0.0829 (  4377 PWs)   bands (ev):

   -38.5544 -38.5117 -17.7253 -17.6151 -17.5595 -17.4581 -17.3478 -17.3139
     7.9227   9.0339   9.4241   9.9135  11.5119  11.5403  11.9157

          k = 0.0000 0.4934 0.1659 (  4389 PWs)   bands (ev):

   -38.5494 -38.5167 -17.7587 -17.6640 -17.4882 -17.4414 -17.3353 -17.3310
     7.9978   8.8692   9.6384  10.0331  11.5168  11.7306  11.7655

          k = 0.0000 0.4934 0.2488 (  4383 PWs)   bands (ev):

   -38.5419 -38.5242 -17.7694 -17.7159 -17.4200 -17.4163 -17.3566 -17.3394
     8.1435   8.6210   9.9168  10.1866  11.4239  11.5914  12.0820

          k = 0.0000 0.4934-0.3318 (  4368 PWs)   bands (ev):

   -38.5330 -38.5330 -17.7541 -17.7541 -17.3865 -17.3865 -17.3680 -17.3680
     8.3601   8.3601  10.1577  10.1577  11.4344  11.4345  12.5438

          k =-0.0000-0.5920-0.0000 (  4378 PWs)   bands (ev):

   -38.5482 -38.5113 -17.7208 -17.6092 -17.5790 -17.4711 -17.3792 -17.3117
     8.3938   8.8693   9.2519   9.7849  11.3819  11.4850  12.0933

          k =-0.0000-0.5920 0.0829 (  4384 PWs)   bands (ev):

   -38.5468 -38.5127 -17.7437 -17.6332 -17.5438 -17.4652 -17.3667 -17.3178
     8.3448   8.8620   9.4090   9.7603  11.4604  11.5545  12.0007

          k =-0.0000-0.5920 0.1659 (  4384 PWs)   bands (ev):

   -38.5428 -38.5167 -17.7754 -17.6851 -17.4775 -17.4481 -17.3475 -17.3353
     8.2917   8.7901   9.7556   9.7870  11.6741  11.6922  11.7681

          k =-0.0000-0.5920 0.2488 (  4388 PWs)   bands (ev):

   -38.5368 -38.5227 -17.7878 -17.7376 -17.4224 -17.4136 -17.3614 -17.3446
     8.3211   8.6242   9.9542  10.0817  11.5419  11.6766  12.0662

          k =-0.0000-0.5920-0.3318 (  4372 PWs)   bands (ev):

   -38.5297 -38.5297 -17.7745 -17.7745 -17.3920 -17.3920 -17.3668 -17.3668
     8.4431   8.4431  10.1392  10.1392  11.5411  11.5414  12.5615

          k = 0.0855 0.1480 0.0000 (  4363 PWs)   bands (ev):

   -38.6208 -38.5177 -17.8012 -17.4198 -17.3894 -17.3246 -17.2726 -17.2374
     5.2987   8.6687  10.5358  11.0488  11.9252  12.0736  12.0903

          k = 0.0855 0.1480 0.0829 (  4364 PWs)   bands (ev):

   -38.6169 -38.5217 -17.7831 -17.4137 -17.3871 -17.3385 -17.2769 -17.2473
     5.4091   8.5689  10.4310  11.0601  11.9009  11.9316  11.9635

          k = 0.0855 0.1480 0.1659 (  4372 PWs)   bands (ev):

   -38.6058 -38.5330 -17.7317 -17.4007 -17.3964 -17.3610 -17.2888 -17.2720
     5.7317   8.2052  10.3429  11.0988  11.6340  11.7731  11.9010

          k = 0.0855 0.1480 0.2488 (  4371 PWs)   bands (ev):

   -38.5892 -38.5498 -17.6541 -17.4710 -17.3703 -17.3497 -17.3065 -17.3029
     6.2404   7.5890  10.4782  11.0808  11.3881  11.6753  11.7899

          k = 0.0855 0.1480-0.3318 (  4368 PWs)   bands (ev):

   -38.5695 -38.5695 -17.5622 -17.5622 -17.3415 -17.3415 -17.3243 -17.3243
     6.8871   6.8871  10.7786  10.7786  11.4847  11.4848  11.8452

          k = 0.0855 0.2467 0.0000 (  4368 PWs)   bands (ev):

   -38.6039 -38.5136 -17.7552 -17.4914 -17.4430 -17.3763 -17.2880 -17.2619
     5.8985   9.0626  10.1193  10.5761  11.7061  11.7781  12.1123

          k = 0.0855 0.2467 0.0829 (  4363 PWs)   bands (ev):

   -38.6005 -38.5170 -17.7448 -17.4818 -17.4468 -17.3849 -17.2931 -17.2653
     5.9992   8.9825  10.0299  10.6066  11.6713  11.7916  12.0087

          k = 0.0855 0.2467 0.1659 (  4375 PWs)   bands (ev):

   -38.5907 -38.5269 -17.7142 -17.4843 -17.4446 -17.3891 -17.3070 -17.2797
     6.2941   8.6266  10.0103  10.6893  11.4711  11.7719  11.9265

          k = 0.0855 0.2467 0.2488 (  4370 PWs)   bands (ev):

   -38.5762 -38.5416 -17.6660 -17.5395 -17.4052 -17.3759 -17.3270 -17.3079
     6.7607   8.0208  10.2156  10.7410  11.2553  11.5639  11.9939

          k = 0.0855 0.2467-0.3318 (  4372 PWs)   bands (ev):

   -38.5589 -38.5589 -17.6049 -17.6049 -17.3681 -17.3681 -17.3382 -17.3382
     7.3586   7.3586  10.5281  10.5281  11.3281  11.3281  12.1221

          k = 0.0855 0.3454 0.0000 (  4366 PWs)   bands (ev):

   -38.5829 -38.5101 -17.6945 -17.5815 -17.5071 -17.4251 -17.3044 -17.2978
     6.7056   9.3496   9.7315  10.1711  11.5256  11.6377  11.8762

          k = 0.0855 0.3454 0.0829 (  4371 PWs)   bands (ev):

   -38.5801 -38.5129 -17.7034 -17.5620 -17.5128 -17.4270 -17.3119 -17.2935
     6.7885   9.3003   9.6818  10.2176  11.4416  11.7140  11.8385

          k = 0.0855 0.3454 0.1659 (  4376 PWs)   bands (ev):

   -38.5723 -38.5208 -17.7103 -17.5722 -17.4852 -17.4201 -17.3283 -17.2952
     7.0311   8.9718   9.7816  10.3267  11.2907  11.6896  11.8739

          k = 0.0855 0.3454 0.2488 (  4390 PWs)   bands (ev):

   -38.5605 -38.5327 -17.6987 -17.6202 -17.4305 -17.3986 -17.3502 -17.3138
     7.4147   8.4534  10.0379  10.4208  11.1465  11.4462  12.0921

          k = 0.0855 0.3454-0.3318 (  4392 PWs)   bands (ev):

   -38.5466 -38.5466 -17.6668 -17.6668 -17.3923 -17.3923 -17.3470 -17.3470
     7.9061   7.9061  10.3139  10.3139  11.2015  11.2015  12.3659

          k = 0.0855 0.4440 0.0000 (  4388 PWs)   bands (ev):

   -38.5624 -38.5094 -17.6615 -17.6295 -17.5646 -17.4617 -17.3412 -17.3185
     7.5895   9.2814   9.4443   9.9281  11.3735  11.6435  11.8499

          k = 0.0855 0.4440 0.0829 (  4386 PWs)   bands (ev):

   -38.5604 -38.5114 -17.7014 -17.6035 -17.5560 -17.4583 -17.3383 -17.3190
     7.6395   9.2210   9.4836   9.9889  11.3647  11.6144  11.8554

          k = 0.0855 0.4440 0.1659 (  4383 PWs)   bands (ev):

   -38.5546 -38.5172 -17.7347 -17.6396 -17.4973 -17.4401 -17.3497 -17.3144
     7.7874   8.9984   9.6648  10.1325  11.2810  11.5704  11.9011

          k = 0.0855 0.4440 0.2488 (  4378 PWs)   bands (ev):

   -38.5460 -38.5258 -17.7434 -17.6884 -17.4476 -17.4040 -17.3705 -17.3213
     8.0251   8.6774   9.9437  10.2620  11.1759  11.3801  12.1427

          k = 0.0855 0.4440-0.3318 (  4388 PWs)   bands (ev):

   -38.5359 -38.5359 -17.7265 -17.7265 -17.4123 -17.4123 -17.3487 -17.3487
     8.3338   8.3338  10.2041  10.2041  11.1934  11.1934  12.5133

          k = 0.0855 0.5427 0.0000 (  4387 PWs)   bands (ev):

   -38.5483 -38.5112 -17.7077 -17.5983 -17.5795 -17.4812 -17.3787 -17.3267
     8.3300   9.0341   9.2931   9.7679  11.3273  11.4797  12.0804

          k = 0.0855 0.5427 0.0829 (  4386 PWs)   bands (ev):

   -38.5469 -38.5126 -17.7305 -17.6237 -17.5469 -17.4719 -17.3688 -17.3297
     8.3146   9.0034   9.4218   9.7787  11.3627  11.4993  12.0326

          k = 0.0855 0.5427 0.1659 (  4374 PWs)   bands (ev):

   -38.5428 -38.5166 -17.7621 -17.6750 -17.4977 -17.4392 -17.3677 -17.3284
     8.3129   8.9025   9.6810   9.9051  11.3758  11.5122  12.0070

          k = 0.0855 0.5427 0.2488 (  4378 PWs)   bands (ev):

   -38.5368 -38.5226 -17.7748 -17.7264 -17.4590 -17.3962 -17.3843 -17.3279
     8.3796   8.7202   9.9521  10.1494  11.2514  11.4233  12.2242

          k = 0.0855 0.5427-0.3318 (  4374 PWs)   bands (ev):

   -38.5297 -38.5297 -17.7624 -17.7624 -17.4240 -17.4240 -17.3477 -17.3477
     8.5248   8.5248  10.1826  10.1826  11.2556  11.2556  12.6229

          k = 0.1709 0.2960 0.0000 (  4355 PWs)   bands (ev):

   -38.5858 -38.5105 -17.7034 -17.5385 -17.5295 -17.4037 -17.3177 -17.2922
     6.5891   9.4046   9.8082  10.1606  11.4588  11.6120  11.9788

          k = 0.1709 0.2960 0.0829 (  4363 PWs)   bands (ev):

   -38.5830 -38.5134 -17.7060 -17.5352 -17.5182 -17.4147 -17.3229 -17.2884
     6.6766   9.3592   9.7363  10.2005  11.4255  11.6665  11.9004

          k = 0.1709 0.2960 0.1659 (  4376 PWs)   bands (ev):

   -38.5748 -38.5216 -17.7041 -17.5600 -17.4703 -17.4257 -17.3368 -17.2892
     6.9326   9.0033   9.8194  10.3116  11.3027  11.6501  11.8627

          k = 0.1709 0.2960 0.2488 (  4371 PWs)   bands (ev):

   -38.5626 -38.5338 -17.6864 -17.6045 -17.4183 -17.4180 -17.3527 -17.3071
     7.3380   8.4429  10.0733  10.4329  11.1247  11.3888  12.0640

          k = 0.1709 0.2960-0.3318 (  4378 PWs)   bands (ev):

   -38.5482 -38.5482 -17.6512 -17.6512 -17.4028 -17.4028 -17.3397 -17.3397
     7.8590   7.8590  10.3504  10.3504  11.1426  11.1426  12.3124

          k = 0.1709 0.3947 0.0000 (  4379 PWs)   bands (ev):

   -38.5658 -38.5092 -17.6412 -17.6151 -17.5693 -17.4486 -17.3456 -17.3328
     7.4312   9.5337   9.5509   9.8514  11.2503  11.7370  11.7460

          k = 0.1709 0.3947 0.0829 (  4378 PWs)   bands (ev):

   -38.5637 -38.5114 -17.6769 -17.6043 -17.5389 -17.4594 -17.3529 -17.3200
     7.4970   9.4430   9.5988   9.9105  11.2328  11.6523  11.7682

          k = 0.1709 0.3947 0.1659 (  4373 PWs)   bands (ev):

   -38.5576 -38.5175 -17.7075 -17.6262 -17.4867 -17.4578 -17.3675 -17.3061
     7.6890   9.1708   9.7730  10.0480  11.1563  11.4560  11.8515

          k = 0.1709 0.3947 0.2488 (  4373 PWs)   bands (ev):

   -38.5484 -38.5267 -17.7150 -17.6648 -17.4643 -17.4267 -17.3704 -17.3102
     7.9908   8.7887  10.0230  10.2086  11.0217  11.1836  12.0690

          k = 0.1709 0.3947-0.3318 (  4382 PWs)   bands (ev):

   -38.5376 -38.5376 -17.6989 -17.6989 -17.4404 -17.4404 -17.3363 -17.3363
     8.3729   8.3729  10.2340  10.2340  10.9810  10.9810  12.4018

          k = 0.1709 0.4934 0.0000 (  4384 PWs)   bands (ev):

   -38.5484 -38.5111 -17.6736 -17.5840 -17.5806 -17.4946 -17.3776 -17.3641
     8.2592   9.3435   9.3844   9.7159  11.1806  11.5002  12.0309

          k = 0.1709 0.4934 0.0829 (  4384 PWs)   bands (ev):

   -38.5470 -38.5125 -17.6950 -17.6179 -17.5419 -17.4878 -17.3810 -17.3502
     8.2873   9.2822   9.4602   9.7965  11.1740  11.4232  12.0263

          k = 0.1709 0.4934 0.1659 (  4381 PWs)   bands (ev):

   -38.5430 -38.5165 -17.7275 -17.6588 -17.5240 -17.4429 -17.3938 -17.3255
     8.3745   9.1419   9.6570   9.9963  11.1108  11.2290  12.0635

          k = 0.1709 0.4934 0.2488 (  4373 PWs)   bands (ev):

   -38.5369 -38.5226 -17.7428 -17.7030 -17.5002 -17.4386 -17.3697 -17.3167
     8.5231   8.9433   9.9492  10.2242  10.9383  10.9944  12.2295

          k = 0.1709 0.4934-0.3318 (  4374 PWs)   bands (ev):

   -38.5297 -38.5297 -17.7341 -17.7341 -17.4689 -17.4689 -17.3322 -17.3322
     8.7227   8.7227  10.2362  10.2362  10.8380  10.8380  12.5360

          k = 0.1709 0.5920 0.0000 (  4376 PWs)   bands (ev):

   -38.5405 -38.5134 -17.6947 -17.5852 -17.5495 -17.5160 -17.4028 -17.3706
     8.7319   9.1570   9.3270   9.6304  11.2041  11.3631  12.1794

          k = 0.1709 0.5920 0.0829 (  4380 PWs)   bands (ev):

   -38.5394 -38.5144 -17.7112 -17.6119 -17.5539 -17.4795 -17.4001 -17.3615
     8.6981   9.1589   9.4621   9.6504  11.1855  11.3227  12.1660

          k = 0.1709 0.5920 0.1659 (  4368 PWs)   bands (ev):

   -38.5365 -38.5173 -17.7398 -17.6652 -17.5410 -17.4194 -17.4155 -17.3355
     8.6729   9.1109   9.7678   9.7757  11.0793  11.2035  12.1920

          k = 0.1709 0.5920 0.2488 (  4372 PWs)   bands (ev):

   -38.5320 -38.5217 -17.7550 -17.7150 -17.5138 -17.4446 -17.3654 -17.3208
     8.7179   8.9826  10.0171  10.1448  10.8472  10.9987  12.3527

          k = 0.1709 0.5920-0.3318 (  4378 PWs)   bands (ev):

   -38.5269 -38.5269 -17.7470 -17.7470 -17.4795 -17.4795 -17.3305 -17.3305
     8.8322   8.8322  10.2867  10.2867  10.7514  10.7514  12.6488

          k = 0.2564 0.4440 0.0000 (  4401 PWs)   bands (ev):

   -38.5485 -38.5110 -17.6447 -17.5947 -17.5811 -17.4870 -17.3911 -17.3770
     8.2365   9.4357   9.5714   9.6159  11.0988  11.5144  11.9902

          k = 0.2564 0.4440 0.0829 (  4385 PWs)   bands (ev):

   -38.5471 -38.5124 -17.6520 -17.6474 -17.5163 -17.5078 -17.3961 -17.3554
     8.2827   9.3739   9.6158   9.7176  11.0924  11.3900  11.9883

          k = 0.2564 0.4440 0.1659 (  4373 PWs)   bands (ev):

   -38.5430 -38.5165 -17.6978 -17.6634 -17.5276 -17.4596 -17.4000 -17.3252
     8.4151   9.2550   9.7493   9.9255  11.0412  11.1051  12.0098

          k = 0.2564 0.4440 0.2488 (  4373 PWs)   bands (ev):

   -38.5369 -38.5226 -17.7199 -17.6934 -17.5182 -17.4632 -17.3642 -17.3134
     8.6150   9.0783   9.9634  10.1592  10.7976  10.8969  12.1417

          k = 0.2564 0.4440-0.3318 (  4370 PWs)   bands (ev):

   -38.5297 -38.5297 -17.7169 -17.7169 -17.4917 -17.4917 -17.3272 -17.3272
     8.8508   8.8508  10.1935  10.1935  10.7127  10.7127  12.4392

          k = 0.2564 0.5427 0.0000 (  4386 PWs)   bands (ev):

   -38.5349 -38.5156 -17.6674 -17.5771 -17.5338 -17.5269 -17.4221 -17.4192
     8.9063   9.3827   9.4051   9.5314  11.0904  11.2909  12.2441

          k = 0.2564 0.5427 0.0829 (  4373 PWs)   bands (ev):

   -38.5342 -38.5163 -17.6728 -17.6154 -17.5639 -17.4752 -17.4294 -17.3889
     8.9274   9.3601   9.4640   9.6215  11.0571  11.1822  12.2340

          k = 0.2564 0.5427 0.1659 (  4364 PWs)   bands (ev):

   -38.5321 -38.5184 -17.6976 -17.6584 -17.5807 -17.4599 -17.4008 -17.3464
     8.9898   9.3310   9.6251   9.8394  10.9082  10.9446  12.2379

          k = 0.2564 0.5427 0.2488 (  4362 PWs)   bands (ev):

   -38.5289 -38.5215 -17.7205 -17.6985 -17.5610 -17.4902 -17.3506 -17.3210
     9.0853   9.2788   9.8831  10.1299  10.5654  10.7327  12.3307

          k = 0.2564 0.5427-0.3318 (  4366 PWs)   bands (ev):

   -38.5252 -38.5252 -17.7216 -17.7216 -17.5268 -17.5268 -17.3221 -17.3221
     9.1916   9.1916  10.2074  10.2074  10.4475  10.4475  12.5721

          k = 0.3418 0.5920 0.0000 (  4377 PWs)   bands (ev):

   -38.5236 -38.5236 -17.6594 -17.5593 -17.5593 -17.4728 -17.4728 -17.4494
     9.3255   9.3255   9.3920   9.4292  11.1298  11.1298  12.3543

          k = 0.3418 0.5920 0.0829 (  4380 PWs)   bands (ev):

   -38.5236 -38.5236 -17.6515 -17.6005 -17.6005 -17.4575 -17.4310 -17.4310
     9.3768   9.3768   9.4227   9.4505  11.0464  11.0464  12.3419

          k = 0.3418 0.5920 0.1659 (  4371 PWs)   bands (ev):

   -38.5236 -38.5236 -17.6565 -17.6565 -17.6291 -17.4807 -17.3736 -17.3736
     9.4981   9.5056   9.5216   9.5216  10.8314  10.8314  12.3324

          k = 0.3418 0.5920 0.2488 (  4365 PWs)   bands (ev):

   -38.5236 -38.5236 -17.6956 -17.6956 -17.5955 -17.5151 -17.3331 -17.3331
     9.5685   9.5734   9.7245   9.7245  10.5672  10.5672  12.3969

          k = 0.3418 0.5920-0.3318 (  4350 PWs)   bands (ev):

   -38.5235 -38.5235 -17.7094 -17.7094 -17.5554 -17.5554 -17.3187 -17.3187
     9.6008   9.6008   9.8559   9.8559  10.4126  10.4126  12.6082

     the Fermi energy is    10.0471 ev

!    total energy              =    -306.88057802 Ry
     total all-electron energy =     -3050.021349 Ry
     estimated scf accuracy    <          1.0E-11 Ry
     smearing contrib. (-TS)   =      -0.00077265 Ry
     internal energy E=F+TS    =    -306.87980537 Ry

     The total energy is F=E-TS. E is the sum of the following terms:
     one-electron contribution =     -67.58331578 Ry
     hartree contribution      =      40.11990125 Ry
     xc contribution           =     -34.67101243 Ry
     ewald contribution        =    -130.98910438 Ry
     one-center paw contrib.   =    -113.75627403 Ry

     convergence has been achieved in  14 iterations

     Forces acting on atoms (cartesian axes, Ry/au):

     atom    1 type  1   force =     0.00000000   -0.00000000    0.00000000
     atom    2 type  1   force =    -0.00000000   -0.00000000   -0.00000000
     The non-local contrib.  to forces
     atom    1 type  1   force =    -0.00000000   -0.00000000   -0.00000000
     atom    2 type  1   force =    -0.00000000   -0.00000000   -0.00000000
     The ionic contribution  to forces
     atom    1 type  1   force =     0.00000000   -0.00000000   -0.00000000
     atom    2 type  1   force =    -0.00000000    0.00000000    0.00000000
     The local contribution  to forces
     atom    1 type  1   force =    -0.00000000    0.00000000   -0.00000000
     atom    2 type  1   force =    -0.00000000    0.00000000    0.00000000
     The core correction contribution to forces
     atom    1 type  1   force =     0.00000000   -0.00000000    0.00000000
     atom    2 type  1   force =     0.00000000   -0.00000000   -0.00000000
     The Hubbard contrib.    to forces
     atom    1 type  1   force =     0.00000000    0.00000000    0.00000000
     atom    2 type  1   force =     0.00000000    0.00000000    0.00000000
     The SCF correction term to forces
     atom    1 type  1   force =    -0.00000000   -0.00000000   -0.00000000
     atom    2 type  1   force =    -0.00000000    0.00000000   -0.00000000

     Total force =     0.000000     Total SCF correction =     0.000000


     Computing stress (Cartesian axis) and pressure

          total   stress  (Ry/bohr**3)                   (kbar)     P=       -0.01
  -0.00000020   0.00000000  -0.00000000           -0.03        0.00       -0.00
   0.00000000  -0.00000020   0.00000000            0.00       -0.03        0.00
  -0.00000000   0.00000000   0.00000025           -0.00        0.00        0.04


     Writing all to output data dir sc_vcrelax.out/scandium.save/

     init_run     :     26.58s CPU     27.52s WALL (       2 calls)
     electrons    :   6601.96s CPU   6768.95s WALL (      10 calls)
     update_pot   :     25.57s CPU     25.64s WALL (       8 calls)
     forces       :     35.43s CPU     35.75s WALL (      10 calls)
     stress       :    164.65s CPU    166.27s WALL (      10 calls)

     Called by init_run:
     wfcinit      :     18.72s CPU     19.16s WALL (       2 calls)
     potinit      :      1.77s CPU      1.89s WALL (       2 calls)
     hinit0       :      5.72s CPU      5.73s WALL (       2 calls)

     Called by electrons:
     c_bands      :   5878.08s CPU   6030.61s WALL (     221 calls)
     sum_band     :    678.61s CPU    685.48s WALL (     221 calls)
     v_of_rho     :      3.41s CPU      3.44s WALL (     229 calls)
     newd         :     21.69s CPU     27.00s WALL (     229 calls)
     PAW_pot      :     20.29s CPU     20.33s WALL (     237 calls)
     mix_rho      :      2.11s CPU      2.31s WALL (     221 calls)

     Called by c_bands:
     init_us_2    :     85.22s CPU     88.51s WALL (   44840 calls)
     init_us_2:cp :     85.07s CPU     88.42s WALL (   44840 calls)
     cegterg      :   5700.61s CPU   5710.25s WALL (   21182 calls)

     Called by *egterg:
     cdiaghg      :     32.17s CPU     32.35s WALL (  135564 calls)
     h_psi        :   4359.82s CPU   4367.67s WALL (  136889 calls)
     s_psi        :    286.87s CPU    287.42s WALL (  136889 calls)
     g_psi        :     27.46s CPU     27.58s WALL (  115517 calls)

     Called by h_psi:
     h_psi:calbec :    276.79s CPU    277.23s WALL (  136889 calls)
     vloc_psi     :   3785.78s CPU   3792.76s WALL (  136889 calls)
     add_vuspsi   :    288.43s CPU    288.85s WALL (  136889 calls)

     General routines
     calbec       :    374.11s CPU    374.73s WALL (  163394 calls)
     fft          :      2.56s CPU      2.57s WALL (    1006 calls)
     ffts         :      0.58s CPU      0.58s WALL (     221 calls)
     fftw         :   3899.36s CPU   3906.86s WALL ( 2574995 calls)

     Parallel routines

     PWSCF        :      1h54m CPU      1h57m WALL


   This run was terminated on:  14:20:52  19Jun2023            

=------------------------------------------------------------------------------=
   JOB DONE.
=------------------------------------------------------------------------------=
