
     Program PWSCF v.7.2 starts on 23Jul2023 at 18:31:31 

     This program is part of the open-source Quantum ESPRESSO suite
     for quantum simulation of materials; please cite
         "P. Giannozzi et al., J. Phys.:Condens. Matter 21 395502 (2009);
         "P. Giannozzi et al., J. Phys.:Condens. Matter 29 465901 (2017);
         "P. Giannozzi et al., J. Chem. Phys. 152 154105 (2020);
          URL http://www.quantum-espresso.org", 
     in publications or presentations arising from this work. More details at
     http://www.quantum-espresso.org/quote

     Parallel version (MPI), running on    20 processors

     MPI processes distributed on     1 nodes
     317895 MiB available memory on the printing compute node when the environment starts

     Waiting for input...
     Reading input from standard input

     Current dimensions of program PWSCF are:
     Max number of different atomic species (ntypx) = 10
     Max number of k-points (npk) = 120000
     Max angular momentum in pseudopotentials (lmaxx) =  4
     file Sc.pz-spn-kjpaw_psl.1.0.0.UPF: wavefunction(s)  3S 3P 3D renormalized

     K-points division:     npool     =       5
     R & G space division:  proc/nbgrp/npool/nimage =       4
     Subspace diagonalization in iterative solution of the eigenvalue problem:
     a serial algorithm will be used


     Parallelization info
     --------------------
     sticks:   dense  smooth     PW     G-vecs:    dense   smooth      PW
     Min         238     186     55                 9744     6682    1064
     Max         239     187     56                 9751     6691    1066
     Sum         955     745    223                38995    26741    4259

     Using Slab Decomposition



     bravais-lattice index     =            4
     lattice parameter (alat)  =       6.2531  a.u.
     unit-cell volume          =     337.5249 (a.u.)^3
     number of atoms/cell      =            2
     number of atomic types    =            1
     number of electrons       =        22.00
     number of Kohn-Sham states=           15
     kinetic-energy cutoff     =      70.0000  Ry
     charge density cutoff     =     360.0000  Ry
     scf convergence threshold =      1.0E-08
     mixing beta               =       0.7000
     number of iterations used =            8  plain     mixing
     energy convergence thresh.=      1.0E-04
     force convergence thresh. =      1.0E-03
     press convergence thresh. =      5.0E-01
     Exchange-correlation= SLA  PZ   NOGX NOGC
                           (   1   1   0   0   0   0   0)
     nstep                     =           50


     celldm(1)=   6.253104  celldm(2)=   0.000000  celldm(3)=   1.594000
     celldm(4)=   0.000000  celldm(5)=   0.000000  celldm(6)=   0.000000

     crystal axes: (cart. coord. in units of alat)
               a(1) = (   1.000000   0.000000   0.000000 )  
               a(2) = (  -0.500000   0.866025   0.000000 )  
               a(3) = (   0.000000   0.000000   1.594000 )  

     reciprocal axes: (cart. coord. in units 2 pi/alat)
               b(1) = (  1.000000  0.577350 -0.000000 )  
               b(2) = (  0.000000  1.154701  0.000000 )  
               b(3) = (  0.000000 -0.000000  0.627353 )  


     PseudoPot. # 1 for Sc read from file:
     ../../../Sc.pz-spn-kjpaw_psl.1.0.0.UPF
     MD5 check sum: 1f9095df0bb42a6568b4e9f256ff075f
     Pseudo is Projector augmented-wave + core cor, Zval = 11.0
     Generated using 'atomic' code by A. Dal Corso  v.7.1
     Shape of augmentation charge: PSQ
     Using radial grid of 1173 points,  6 beta functions with: 
                l(1) =   0
                l(2) =   0
                l(3) =   1
                l(4) =   1
                l(5) =   2
                l(6) =   2
     Q(r) pseudized with 0 coefficients 


     atomic species   valence    mass     pseudopotential
        Sc            11.00    44.59600     Sc( 1.00)

     24 Sym. Ops., with inversion, found (12 have fractional translation)



   Cartesian axes

     site n.     atom                  positions (alat units)
         1           Sc  tau(   1) = (   0.0000000   0.0000000   0.0000000  )
         2           Sc  tau(   2) = (   0.5000000   0.2886751   0.7970000  )

     number of k points=    95  Marzari-Vanderbilt smearing, width (Ry)=  0.0200
                       cart. coord. in units 2pi/alat
        k(    1) = (   0.0000000   0.0000000   0.0000000), wk =   0.0017361
        k(    2) = (   0.0000000   0.0000000   0.0784191), wk =   0.0034722
        k(    3) = (   0.0000000   0.0000000   0.1568381), wk =   0.0034722
        k(    4) = (   0.0000000   0.0000000   0.2352572), wk =   0.0034722
        k(    5) = (   0.0000000   0.0000000  -0.3136763), wk =   0.0017361
        k(    6) = (   0.0000000   0.0962250   0.0000000), wk =   0.0104167
        k(    7) = (   0.0000000   0.0962250   0.0784191), wk =   0.0208333
        k(    8) = (   0.0000000   0.0962250   0.1568381), wk =   0.0208333
        k(    9) = (   0.0000000   0.0962250   0.2352572), wk =   0.0208333
        k(   10) = (   0.0000000   0.0962250  -0.3136763), wk =   0.0104167
        k(   11) = (   0.0000000   0.1924501   0.0000000), wk =   0.0104167
        k(   12) = (   0.0000000   0.1924501   0.0784191), wk =   0.0208333
        k(   13) = (   0.0000000   0.1924501   0.1568381), wk =   0.0208333
        k(   14) = (   0.0000000   0.1924501   0.2352572), wk =   0.0208333
        k(   15) = (   0.0000000   0.1924501  -0.3136763), wk =   0.0104167
        k(   16) = (   0.0000000   0.2886751   0.0000000), wk =   0.0104167
        k(   17) = (   0.0000000   0.2886751   0.0784191), wk =   0.0208333
        k(   18) = (   0.0000000   0.2886751   0.1568381), wk =   0.0208333
        k(   19) = (   0.0000000   0.2886751   0.2352572), wk =   0.0208333
        k(   20) = (   0.0000000   0.2886751  -0.3136763), wk =   0.0104167
        k(   21) = (   0.0000000   0.3849002   0.0000000), wk =   0.0104167
        k(   22) = (   0.0000000   0.3849002   0.0784191), wk =   0.0208333
        k(   23) = (   0.0000000   0.3849002   0.1568381), wk =   0.0208333
        k(   24) = (   0.0000000   0.3849002   0.2352572), wk =   0.0208333
        k(   25) = (   0.0000000   0.3849002  -0.3136763), wk =   0.0104167
        k(   26) = (   0.0000000   0.4811252   0.0000000), wk =   0.0104167
        k(   27) = (   0.0000000   0.4811252   0.0784191), wk =   0.0208333
        k(   28) = (   0.0000000   0.4811252   0.1568381), wk =   0.0208333
        k(   29) = (   0.0000000   0.4811252   0.2352572), wk =   0.0208333
        k(   30) = (   0.0000000   0.4811252  -0.3136763), wk =   0.0104167
        k(   31) = (   0.0000000  -0.5773503   0.0000000), wk =   0.0052083
        k(   32) = (   0.0000000  -0.5773503   0.0784191), wk =   0.0104167
        k(   33) = (   0.0000000  -0.5773503   0.1568381), wk =   0.0104167
        k(   34) = (   0.0000000  -0.5773503   0.2352572), wk =   0.0104167
        k(   35) = (   0.0000000  -0.5773503  -0.3136763), wk =   0.0052083
        k(   36) = (   0.0833333   0.1443376   0.0000000), wk =   0.0104167
        k(   37) = (   0.0833333   0.1443376   0.0784191), wk =   0.0208333
        k(   38) = (   0.0833333   0.1443376   0.1568381), wk =   0.0208333
        k(   39) = (   0.0833333   0.1443376   0.2352572), wk =   0.0208333
        k(   40) = (   0.0833333   0.1443376  -0.3136763), wk =   0.0104167
        k(   41) = (   0.0833333   0.2405626   0.0000000), wk =   0.0208333
        k(   42) = (   0.0833333   0.2405626   0.0784191), wk =   0.0416667
        k(   43) = (   0.0833333   0.2405626   0.1568381), wk =   0.0416667
        k(   44) = (   0.0833333   0.2405626   0.2352572), wk =   0.0416667
        k(   45) = (   0.0833333   0.2405626  -0.3136763), wk =   0.0208333
        k(   46) = (   0.0833333   0.3367877   0.0000000), wk =   0.0208333
        k(   47) = (   0.0833333   0.3367877   0.0784191), wk =   0.0416667
        k(   48) = (   0.0833333   0.3367877   0.1568381), wk =   0.0416667
        k(   49) = (   0.0833333   0.3367877   0.2352572), wk =   0.0416667
        k(   50) = (   0.0833333   0.3367877  -0.3136763), wk =   0.0208333
        k(   51) = (   0.0833333   0.4330127   0.0000000), wk =   0.0208333
        k(   52) = (   0.0833333   0.4330127   0.0784191), wk =   0.0416667
        k(   53) = (   0.0833333   0.4330127   0.1568381), wk =   0.0416667
        k(   54) = (   0.0833333   0.4330127   0.2352572), wk =   0.0416667
        k(   55) = (   0.0833333   0.4330127  -0.3136763), wk =   0.0208333
        k(   56) = (   0.0833333   0.5292377   0.0000000), wk =   0.0208333
        k(   57) = (   0.0833333   0.5292377   0.0784191), wk =   0.0416667
        k(   58) = (   0.0833333   0.5292377   0.1568381), wk =   0.0416667
        k(   59) = (   0.0833333   0.5292377   0.2352572), wk =   0.0416667
        k(   60) = (   0.0833333   0.5292377  -0.3136763), wk =   0.0208333
        k(   61) = (   0.1666667   0.2886751   0.0000000), wk =   0.0104167
        k(   62) = (   0.1666667   0.2886751   0.0784191), wk =   0.0208333
        k(   63) = (   0.1666667   0.2886751   0.1568381), wk =   0.0208333
        k(   64) = (   0.1666667   0.2886751   0.2352572), wk =   0.0208333
        k(   65) = (   0.1666667   0.2886751  -0.3136763), wk =   0.0104167
        k(   66) = (   0.1666667   0.3849002   0.0000000), wk =   0.0208333
        k(   67) = (   0.1666667   0.3849002   0.0784191), wk =   0.0416667
        k(   68) = (   0.1666667   0.3849002   0.1568381), wk =   0.0416667
        k(   69) = (   0.1666667   0.3849002   0.2352572), wk =   0.0416667
        k(   70) = (   0.1666667   0.3849002  -0.3136763), wk =   0.0208333
        k(   71) = (   0.1666667   0.4811252   0.0000000), wk =   0.0208333
        k(   72) = (   0.1666667   0.4811252   0.0784191), wk =   0.0416667
        k(   73) = (   0.1666667   0.4811252   0.1568381), wk =   0.0416667
        k(   74) = (   0.1666667   0.4811252   0.2352572), wk =   0.0416667
        k(   75) = (   0.1666667   0.4811252  -0.3136763), wk =   0.0208333
        k(   76) = (   0.1666667   0.5773503   0.0000000), wk =   0.0104167
        k(   77) = (   0.1666667   0.5773503   0.0784191), wk =   0.0208333
        k(   78) = (   0.1666667   0.5773503   0.1568381), wk =   0.0208333
        k(   79) = (   0.1666667   0.5773503   0.2352572), wk =   0.0208333
        k(   80) = (   0.1666667   0.5773503  -0.3136763), wk =   0.0104167
        k(   81) = (   0.2500000   0.4330127   0.0000000), wk =   0.0104167
        k(   82) = (   0.2500000   0.4330127   0.0784191), wk =   0.0208333
        k(   83) = (   0.2500000   0.4330127   0.1568381), wk =   0.0208333
        k(   84) = (   0.2500000   0.4330127   0.2352572), wk =   0.0208333
        k(   85) = (   0.2500000   0.4330127  -0.3136763), wk =   0.0104167
        k(   86) = (   0.2500000   0.5292377   0.0000000), wk =   0.0208333
        k(   87) = (   0.2500000   0.5292377   0.0784191), wk =   0.0416667
        k(   88) = (   0.2500000   0.5292377   0.1568381), wk =   0.0416667
        k(   89) = (   0.2500000   0.5292377   0.2352572), wk =   0.0416667
        k(   90) = (   0.2500000   0.5292377  -0.3136763), wk =   0.0208333
        k(   91) = (   0.3333333   0.5773503   0.0000000), wk =   0.0034722
        k(   92) = (   0.3333333   0.5773503   0.0784191), wk =   0.0069444
        k(   93) = (   0.3333333   0.5773503   0.1568381), wk =   0.0069444
        k(   94) = (   0.3333333   0.5773503   0.2352572), wk =   0.0069444
        k(   95) = (   0.3333333   0.5773503  -0.3136763), wk =   0.0034722

     Dense  grid:    38995 G-vectors     FFT dimensions: (  45,  45,  64)

     Smooth grid:    26741 G-vectors     FFT dimensions: (  36,  36,  54)

     Estimated max dynamical RAM per process >      19.62 MB

     Estimated total dynamical RAM >     354.26 MB

     Check: negative core charge=   -0.000008

     Initial potential from superposition of free atoms

     starting charge      21.9956, renormalised to      22.0000
     Starting wfcs are   20 randomized atomic wfcs
     Checking if some PAW data can be deallocated... 

     total cpu time spent up to now is        2.1 secs

     Self-consistent Calculation

     iteration #  1     ecut=    70.00 Ry     beta= 0.70
     Davidson diagonalization with overlap
     ethr =  1.00E-02,  avg # of iterations =  2.2

     Threshold (ethr) on eigenvalues was too large:
     Diagonalizing with lowered threshold

     Davidson diagonalization with overlap
     c_bands:  1 eigenvalues not converged
     c_bands:  3 eigenvalues not converged
     c_bands:  4 eigenvalues not converged
     c_bands:  2 eigenvalues not converged
     c_bands:  1 eigenvalues not converged
     c_bands:  1 eigenvalues not converged
     c_bands:  1 eigenvalues not converged
     ethr =  1.52E-05,  avg # of iterations = 18.0

     total cpu time spent up to now is        7.8 secs

     total energy              =    -306.86618848 Ry
     estimated scf accuracy    <       0.02037319 Ry

     iteration #  2     ecut=    70.00 Ry     beta= 0.70
     Davidson diagonalization with overlap
     ethr =  9.26E-05,  avg # of iterations =  4.4

     total cpu time spent up to now is        9.1 secs

     total energy              =    -306.87116509 Ry
     estimated scf accuracy    <       0.00168463 Ry

     iteration #  3     ecut=    70.00 Ry     beta= 0.70
     Davidson diagonalization with overlap
     ethr =  7.66E-06,  avg # of iterations =  8.6

     total cpu time spent up to now is       11.0 secs

     total energy              =    -306.87222410 Ry
     estimated scf accuracy    <       0.00027522 Ry

     iteration #  4     ecut=    70.00 Ry     beta= 0.70
     Davidson diagonalization with overlap
     c_bands:  1 eigenvalues not converged
     c_bands:  1 eigenvalues not converged
     ethr =  1.25E-06,  avg # of iterations =  7.7

     total cpu time spent up to now is       12.7 secs

     total energy              =    -306.87240233 Ry
     estimated scf accuracy    <       0.00013596 Ry

     iteration #  5     ecut=    70.00 Ry     beta= 0.70
     Davidson diagonalization with overlap
     c_bands:  1 eigenvalues not converged
     ethr =  6.18E-07,  avg # of iterations =  6.3

     total cpu time spent up to now is       14.3 secs

     total energy              =    -306.87247096 Ry
     estimated scf accuracy    <       0.00001749 Ry

     iteration #  6     ecut=    70.00 Ry     beta= 0.70
     Davidson diagonalization with overlap
     ethr =  7.95E-08,  avg # of iterations =  8.1

     total cpu time spent up to now is       15.9 secs

     total energy              =    -306.87247081 Ry
     estimated scf accuracy    <       0.00001676 Ry

     iteration #  7     ecut=    70.00 Ry     beta= 0.70
     Davidson diagonalization with overlap
     ethr =  7.62E-08,  avg # of iterations =  4.8

     total cpu time spent up to now is       17.2 secs

     total energy              =    -306.87247571 Ry
     estimated scf accuracy    <       0.00000002 Ry

     iteration #  8     ecut=    70.00 Ry     beta= 0.70
     Davidson diagonalization with overlap
     c_bands:  1 eigenvalues not converged
     c_bands:  3 eigenvalues not converged
     c_bands:  2 eigenvalues not converged
     c_bands:  1 eigenvalues not converged
     c_bands:  4 eigenvalues not converged
     c_bands:  3 eigenvalues not converged
     c_bands:  2 eigenvalues not converged
     c_bands:  1 eigenvalues not converged
     ethr =  7.16E-11,  avg # of iterations = 24.3

     total cpu time spent up to now is       23.9 secs

     total energy              =    -306.87247744 Ry
     estimated scf accuracy    <       0.00000039 Ry

     iteration #  9     ecut=    70.00 Ry     beta= 0.70
     Davidson diagonalization with overlap
     ethr =  7.16E-11,  avg # of iterations =  6.9

     total cpu time spent up to now is       25.5 secs

     total energy              =    -306.87247740 Ry
     estimated scf accuracy    <       0.00000043 Ry

     iteration # 10     ecut=    70.00 Ry     beta= 0.70
     Davidson diagonalization with overlap
     ethr =  7.16E-11,  avg # of iterations =  2.2

     total cpu time spent up to now is       26.5 secs

     total energy              =    -306.87247724 Ry
     estimated scf accuracy    <       0.00000032 Ry

     iteration # 11     ecut=    70.00 Ry     beta= 0.70
     Davidson diagonalization with overlap
     ethr =  7.16E-11,  avg # of iterations =  9.7

     total cpu time spent up to now is       28.5 secs

     total energy              =    -306.87247729 Ry
     estimated scf accuracy    <       0.00000001 Ry

     iteration # 12     ecut=    70.00 Ry     beta= 0.70
     Davidson diagonalization with overlap
     ethr =  5.06E-11,  avg # of iterations =  1.8

     total cpu time spent up to now is       29.4 secs

     End of self-consistent calculation

          k = 0.0000 0.0000 0.0000 (  3381 PWs)   bands (ev):

   -40.1387 -40.0743 -19.2238 -18.8903 -18.8903 -18.8319 -18.8319 -18.8149
     3.7531   7.1409   9.3006  10.3524  10.3524  10.4624  10.7559

          k = 0.0000 0.0000 0.0784 (  3363 PWs)   bands (ev):

   -40.1362 -40.0768 -19.2088 -18.8880 -18.8880 -18.8341 -18.8341 -18.8309
     3.8543   6.9872   9.2701  10.3097  10.3098  10.3974  10.7004

          k = 0.0000 0.0000 0.1568 (  3315 PWs)   bands (ev):

   -40.1293 -40.0838 -19.1656 -18.8817 -18.8817 -18.8765 -18.8404 -18.8404
     4.1513   6.5418   9.2784  10.2193  10.2475  10.2478  10.5658

          k = 0.0000 0.0000 0.2353 (  3320 PWs)   bands (ev):

   -40.1189 -40.0943 -19.1004 -18.9440 -18.8723 -18.8723 -18.8499 -18.8499
     4.6230   5.9066   9.4191   9.9521  10.2355  10.2358  10.4132

          k = 0.0000 0.0000-0.3137 (  3326 PWs)   bands (ev):

   -40.1066 -40.1066 -19.0227 -19.0227 -18.8611 -18.8611 -18.8611 -18.8611
     5.2302   5.2302   9.6652   9.6652  10.2934  10.2934  10.2934

          k = 0.0000 0.0962 0.0000 (  3361 PWs)   bands (ev):

   -40.1354 -40.0730 -19.2150 -18.9085 -18.8963 -18.8509 -18.8345 -18.8186
     3.9043   7.2708   9.1759  10.0831  10.4618  10.6296  10.6924

          k = 0.0000 0.0962 0.0784 (  3360 PWs)   bands (ev):

   -40.1330 -40.0754 -19.2008 -18.9059 -18.8940 -18.8590 -18.8368 -18.8282
     4.0041   7.1167   9.1483  10.0792  10.4074  10.5048  10.6308

          k = 0.0000 0.0962 0.1568 (  3346 PWs)   bands (ev):

   -40.1263 -40.0822 -19.1603 -18.8989 -18.8923 -18.8873 -18.8446 -18.8436
     4.2969   6.6690   9.1710  10.0851  10.2339  10.3341  10.6499

          k = 0.0000 0.0962 0.2353 (  3345 PWs)   bands (ev):

   -40.1162 -40.0923 -19.0992 -18.9536 -18.8867 -18.8773 -18.8588 -18.8536
     4.7624   6.0343   9.3322   9.9189  10.1319  10.3196  10.3770

          k = 0.0000 0.0962-0.3137 (  3338 PWs)   bands (ev):

   -40.1043 -40.1043 -19.0266 -19.0266 -18.8730 -18.8730 -18.8655 -18.8655
     5.3629   5.3629   9.6010   9.6010  10.2323  10.2326  10.3773

          k = 0.0000 0.1925 0.0000 (  3355 PWs)   bands (ev):

   -40.1261 -40.0694 -19.1898 -18.9587 -18.9124 -18.9021 -18.8420 -18.8298
     4.3436   7.6192   8.8903   9.6719  10.4064  10.7796  10.8128

          k = 0.0000 0.1925 0.0784 (  3354 PWs)   bands (ev):

   -40.1240 -40.0716 -19.1787 -18.9545 -18.9116 -18.9097 -18.8447 -18.8361
     4.4385   7.4653   8.8742   9.6913  10.3975  10.5423  10.6291

          k = 0.0000 0.1925 0.1568 (  3354 PWs)   bands (ev):

   -40.1179 -40.0778 -19.1471 -18.9480 -18.9349 -18.9022 -18.8526 -18.8524
     4.7174   7.0142   8.9357   9.7480  10.1725  10.4062  10.5391

          k = 0.0000 0.1925 0.2353 (  3349 PWs)   bands (ev):

   -40.1087 -40.0870 -19.0997 -18.9885 -18.9213 -18.8908 -18.8747 -18.8638
     5.1618   6.3877   9.1374   9.7364   9.9558  10.2581  10.5327

          k = 0.0000 0.1925-0.3137 (  3340 PWs)   bands (ev):

   -40.0978 -40.0978 -19.0437 -19.0437 -18.8986 -18.8986 -18.8773 -18.8773
     5.7377   5.7377   9.4336   9.4337  10.0772  10.0772  10.6038

          k = 0.0000 0.2887 0.0000 (  3328 PWs)   bands (ev):

   -40.1129 -40.0651 -19.1520 -19.0278 -18.9699 -18.9336 -18.8529 -18.8485
     5.0252   8.0263   8.5829   9.2476  10.1871  10.4680  10.5682

          k = 0.0000 0.2887 0.0784 (  3329 PWs)   bands (ev):

   -40.1111 -40.0669 -19.1485 -19.0191 -18.9790 -18.9305 -18.8560 -18.8518
     5.1104   7.8777   8.5940   9.2783  10.1596  10.4080  10.5814

          k = 0.0000 0.2887 0.1568 (  3345 PWs)   bands (ev):

   -40.1060 -40.0721 -19.1367 -19.0149 -18.9841 -18.9219 -18.8648 -18.8635
     5.3608   7.4436   8.7115   9.3547  10.0137  10.2970  10.6308

          k = 0.0000 0.2887 0.2353 (  3344 PWs)   bands (ev):

   -40.0982 -40.0799 -19.1147 -19.0473 -18.9525 -18.9088 -18.8854 -18.8780
     5.7599   6.8656   8.9383   9.3922   9.8548  10.1273  10.7317

          k = 0.0000 0.2887-0.3137 (  3340 PWs)   bands (ev):

   -40.0891 -40.0891 -19.0836 -19.0836 -18.9166 -18.9166 -18.8934 -18.8934
     6.2778   6.2778   9.2106   9.2106   9.9300   9.9300  10.8843

          k = 0.0000 0.3849 0.0000 (  3326 PWs)   bands (ev):

   -40.0987 -40.0618 -19.1076 -19.0976 -19.0355 -18.9541 -18.8737 -18.8644
     5.8647   8.1856   8.3337   8.9127  10.2126  10.2208  10.3561

          k = 0.0000 0.3849 0.0784 (  3331 PWs)   bands (ev):

   -40.0973 -40.0632 -19.1340 -19.0667 -19.0400 -18.9507 -18.8737 -18.8679
     5.9317   8.0440   8.4030   8.9542  10.0679  10.2992  10.4054

          k = 0.0000 0.3849 0.1568 (  3326 PWs)   bands (ev):

   -40.0933 -40.0672 -19.1506 -19.0793 -19.0065 -18.9411 -18.8779 -18.8777
     6.1280   7.7110   8.5641   9.0424   9.9223  10.2489  10.5506

          k = 0.0000 0.3849 0.2353 (  3329 PWs)   bands (ev):

   -40.0873 -40.0732 -19.1511 -19.1098 -18.9606 -18.9266 -18.8928 -18.8923
     6.4386   7.2817   8.7869   9.0960   9.8351  10.0799  10.7806

          k = 0.0000 0.3849-0.3137 (  3338 PWs)   bands (ev):

   -40.0803 -40.0803 -19.1361 -19.1361 -18.9210 -18.9210 -18.9095 -18.9095
     6.8371   6.8371   9.0028   9.0028   9.8966   9.8966  11.0753

          k = 0.0000 0.4811 0.0000 (  3346 PWs)   bands (ev):

   -40.0869 -40.0607 -19.1489 -19.0825 -19.0664 -18.9688 -18.9009 -18.8731
     6.7161   8.0200   8.1767   8.6625  10.0499  10.2147  10.4261

          k = 0.0000 0.4811 0.0784 (  3337 PWs)   bands (ev):

   -40.0859 -40.0617 -19.1630 -19.0964 -19.0415 -18.9652 -18.8975 -18.8768
     6.7478   7.9240   8.2758   8.6930  10.0552  10.2767  10.3798

          k = 0.0000 0.4811 0.1568 (  3338 PWs)   bands (ev):

   -40.0831 -40.0646 -19.1817 -19.1248 -18.9974 -18.9549 -18.8938 -18.8872
     6.8444   7.7283   8.4691   8.7900  10.0419  10.2569  10.4593

          k = 0.0000 0.4811 0.2353 (  3334 PWs)   bands (ev):

   -40.0788 -40.0688 -19.1880 -19.1555 -18.9540 -18.9395 -18.9028 -18.8996
     7.0065   7.4798   8.7000   8.9005   9.9851  10.1067  10.7526

          k = 0.0000 0.4811-0.3137 (  3334 PWs)   bands (ev):

   -40.0738 -40.0738 -19.1785 -19.1785 -18.9212 -18.9212 -18.9199 -18.9199
     7.2260   7.2260   8.8831   8.8831   9.9884   9.9885  11.1366

          k = 0.0000-0.5774 0.0000 (  3326 PWs)   bands (ev):

   -40.0820 -40.0610 -19.1677 -19.0994 -19.0470 -18.9741 -18.9151 -18.8763
     7.2310   7.7841   8.1238   8.5472   9.9892  10.1655  10.5253

          k = 0.0000-0.5774 0.0784 (  3336 PWs)   bands (ev):

   -40.0812 -40.0618 -19.1789 -19.1121 -19.0280 -18.9705 -18.9099 -18.8801
     7.2106   7.7609   8.2346   8.5447  10.0440  10.2308  10.4543

          k = 0.0000-0.5774 0.1568 (  3330 PWs)   bands (ev):

   -40.0789 -40.0641 -19.1960 -19.1413 -18.9888 -18.9599 -18.9020 -18.8907
     7.1956   7.6681   8.4975   8.5961  10.1393  10.2748  10.4240

          k = 0.0000-0.5774 0.2353 (  3338 PWs)   bands (ev):

   -40.0755 -40.0675 -19.2029 -19.1722 -18.9491 -18.9442 -18.9067 -18.9031
     7.2393   7.5115   8.7342   8.7659  10.0919  10.1464  10.7349

          k = 0.0000-0.5774-0.3137 (  3352 PWs)   bands (ev):

   -40.0715 -40.0715 -19.1945 -19.1945 -18.9255 -18.9255 -18.9189 -18.9189
     7.3519   7.3519   8.8518   8.8518  10.0622  10.0622  11.1449

          k = 0.0833 0.1443 0.0000 (  3369 PWs)   bands (ev):

   -40.1291 -40.0705 -19.1980 -18.9392 -18.9154 -18.8790 -18.8420 -18.8261
     4.1999   7.5123   8.9757   9.7835  10.4869  10.6907  10.7618

          k = 0.0833 0.1443 0.0784 (  3357 PWs)   bands (ev):

   -40.1269 -40.0728 -19.1858 -18.9355 -18.9148 -18.8869 -18.8446 -18.8327
     4.2965   7.3580   8.9551   9.7987  10.4953  10.5106  10.5847

          k = 0.0833 0.1443 0.1568 (  3351 PWs)   bands (ev):

   -40.1205 -40.0791 -19.1510 -18.9287 -18.9251 -18.8970 -18.8519 -18.8486
     4.5803   6.9069   9.0039   9.8471  10.1989  10.4350  10.4925

          k = 0.0833 0.1443 0.2353 (  3348 PWs)   bands (ev):

   -40.1111 -40.0887 -19.0987 -18.9760 -18.9094 -18.8902 -18.8672 -18.8626
     5.0323   6.2760   9.1951   9.8125   9.9889  10.2875  10.4785

          k = 0.0833 0.1443-0.3137 (  3340 PWs)   bands (ev):

   -40.0999 -40.0999 -19.0369 -19.0369 -18.8917 -18.8917 -18.8738 -18.8738
     5.6174   5.6174   9.4880   9.4880  10.1178  10.1179  10.5344

          k = 0.0833 0.2406 0.0000 (  3334 PWs)   bands (ev):

   -40.1178 -40.0666 -19.1664 -18.9942 -18.9604 -18.9130 -18.8550 -18.8411
     4.7624   7.9095   8.6973   9.3728  10.2576  10.4632  10.7529

          k = 0.0833 0.2406 0.0784 (  3343 PWs)   bands (ev):

   -40.1159 -40.0686 -19.1591 -18.9882 -18.9644 -18.9162 -18.8581 -18.8444
     4.8520   7.7573   8.6934   9.4005  10.2667  10.3840  10.6774

          k = 0.0833 0.2406 0.1568 (  3347 PWs)   bands (ev):

   -40.1104 -40.0741 -19.1381 -18.9890 -18.9653 -18.9170 -18.8668 -18.8555
     5.1152   7.3079   8.7885   9.4758  10.0876  10.3027  10.6281

          k = 0.0833 0.2406 0.2353 (  3341 PWs)   bands (ev):

   -40.1021 -40.0825 -19.1054 -19.0232 -18.9405 -18.9104 -18.8801 -18.8732
     5.5352   6.7004   9.0114   9.5199   9.8728  10.1427  10.6803

          k = 0.0833 0.2406-0.3137 (  3324 PWs)   bands (ev):

   -40.0923 -40.0923 -19.0651 -19.0651 -18.9143 -18.9143 -18.8872 -18.8872
     6.0807   6.0807   9.3021   9.3021   9.9479   9.9480  10.7856

          k = 0.0833 0.3368 0.0000 (  3331 PWs)   bands (ev):

   -40.1041 -40.0628 -19.1250 -19.0623 -19.0151 -18.9446 -18.8688 -18.8634
     5.5302   8.2281   8.4421   8.9970  10.1537  10.2071  10.5121

          k = 0.0833 0.3368 0.0784 (  3332 PWs)   bands (ev):

   -40.1025 -40.0644 -19.1318 -19.0485 -19.0186 -18.9445 -18.8736 -18.8623
     5.6067   8.0792   8.4845   9.0347  10.0635  10.2734  10.4948

          k = 0.0833 0.3368 0.1568 (  3328 PWs)   bands (ev):

   -40.0981 -40.0689 -19.1373 -19.0541 -18.9982 -18.9398 -18.8842 -18.8661
     5.8311   7.6820   8.6326   9.1248   9.9207  10.2226  10.5649

          k = 0.0833 0.3368 0.2353 (  3338 PWs)   bands (ev):

   -40.0914 -40.0756 -19.1305 -19.0827 -18.9601 -18.9290 -18.8981 -18.8797
     6.1878   7.1700   8.8584   9.1970   9.7867  10.0299  10.7546

          k = 0.0833 0.3368-0.3137 (  3336 PWs)   bands (ev):

   -40.0835 -40.0835 -19.1109 -19.1109 -18.9303 -18.9303 -18.8989 -18.8989
     6.6489   6.6489   9.0946   9.0946   9.8314   9.8314  10.9918

          k = 0.0833 0.4330 0.0000 (  3333 PWs)   bands (ev):

   -40.0909 -40.0608 -19.1227 -19.0809 -19.0629 -18.9690 -18.8908 -18.8807
     6.3940   8.2002   8.2589   8.7325  10.0391  10.2799  10.3233

          k = 0.0833 0.4330 0.0784 (  3332 PWs)   bands (ev):

   -40.0898 -40.0620 -19.1418 -19.0810 -19.0455 -18.9665 -18.8922 -18.8801
     6.4463   8.0677   8.3531   8.7836   9.9877  10.2633  10.3669

          k = 0.0833 0.4330 0.1568 (  3328 PWs)   bands (ev):

   -40.0865 -40.0652 -19.1616 -19.1051 -19.0037 -18.9562 -18.9011 -18.8788
     6.5992   7.8142   8.5222   8.8966   9.8842  10.1562  10.5198

          k = 0.0833 0.4330 0.2353 (  3334 PWs)   bands (ev):

   -40.0816 -40.0701 -19.1671 -19.1341 -18.9675 -18.9379 -18.9142 -18.8856
     6.8409   7.4900   8.7459   8.9904   9.7972   9.9701  10.7707

          k = 0.0833 0.4330-0.3137 (  3344 PWs)   bands (ev):

   -40.0759 -40.0759 -19.1570 -19.1570 -18.9426 -18.9426 -18.9035 -18.9035
     7.1493   7.1493   8.9446   8.9446   9.8145   9.8145  11.0963

          k = 0.0833 0.5292 0.0000 (  3335 PWs)   bands (ev):

   -40.0820 -40.0609 -19.1576 -19.0906 -19.0473 -18.9825 -18.9148 -18.8877
     7.1528   7.9479   8.1654   8.5460   9.9733  10.1240  10.5205

          k = 0.0833 0.5292 0.0784 (  3338 PWs)   bands (ev):

   -40.0812 -40.0617 -19.1687 -19.1038 -19.0300 -18.9770 -18.9118 -18.8889
     7.1576   7.8963   8.2674   8.5681   9.9887  10.1310  10.5074

          k = 0.0833 0.5292 0.1568 (  3337 PWs)   bands (ev):

   -40.0789 -40.0640 -19.1858 -19.1328 -18.9991 -18.9588 -18.9147 -18.8882
     7.1895   7.7709   8.4864   8.6734   9.9890  10.0694  10.5801

          k = 0.0833 0.5292 0.2353 (  3337 PWs)   bands (ev):

   -40.0755 -40.0674 -19.1929 -19.1632 -18.9728 -18.9341 -18.9256 -18.8902
     7.2736   7.5947   8.7248   8.8479   9.8829   9.9541  10.8231

          k = 0.0833 0.5292-0.3137 (  3338 PWs)   bands (ev):

   -40.0715 -40.0715 -19.1850 -19.1850 -18.9503 -18.9503 -18.9040 -18.9040
     7.4152   7.4152   8.8931   8.8931   9.8461   9.8462  11.1735

          k = 0.1667 0.2887 0.0000 (  3336 PWs)   bands (ev):

   -40.1060 -40.0633 -19.1310 -19.0323 -19.0246 -18.9333 -18.8786 -18.8599
     5.4165   8.2647   8.4970   9.0012  10.1440  10.1628  10.6007

          k = 0.1667 0.2887 0.0784 (  3342 PWs)   bands (ev):

   -40.1044 -40.0649 -19.1328 -19.0287 -19.0190 -18.9384 -18.8816 -18.8592
     5.4962   8.1109   8.5269   9.0348  10.1124  10.1932  10.5460

          k = 0.1667 0.2887 0.1568 (  3339 PWs)   bands (ev):

   -40.0998 -40.0695 -19.1318 -19.0442 -18.9879 -18.9441 -18.8897 -18.8626
     5.7303   7.6835   8.6691   9.1277   9.9627  10.1838  10.5380

          k = 0.1667 0.2887 0.2353 (  3331 PWs)   bands (ev):

   -40.0928 -40.0765 -19.1207 -19.0705 -18.9535 -18.9411 -18.8990 -18.8758
     6.1032   7.1372   8.8969   9.2253   9.7799   9.9889  10.7119

          k = 0.1667 0.2887-0.3137 (  3332 PWs)   bands (ev):

   -40.0847 -40.0847 -19.0989 -19.0989 -18.9364 -18.9364 -18.8951 -18.8951
     6.5870   6.5870   9.1405   9.1405   9.7880   9.7880  10.9355

          k = 0.1667 0.3849 0.0000 (  3342 PWs)   bands (ev):

   -40.0931 -40.0610 -19.0888 -19.0880 -19.0591 -18.9658 -18.9010 -18.8855
     6.2281   8.3455   8.4208   8.7017   9.9501  10.2305  10.3591

          k = 0.1667 0.3849 0.0784 (  3328 PWs)   bands (ev):

   -40.0919 -40.0622 -19.1184 -19.0790 -19.0352 -18.9704 -18.9052 -18.8798
     6.2913   8.2265   8.4805   8.7471   9.9140  10.2543  10.3089

          k = 0.1667 0.3849 0.1568 (  3337 PWs)   bands (ev):

   -40.0884 -40.0657 -19.1389 -19.0930 -18.9968 -18.9714 -18.9137 -18.8741
     6.4763   7.9380   8.6255   8.8560   9.8181  10.0754  10.4344

          k = 0.1667 0.3849 0.2353 (  3338 PWs)   bands (ev):

   -40.0832 -40.0709 -19.1444 -19.1153 -18.9761 -18.9573 -18.9157 -18.8790
     6.7683   7.5508   8.8276   8.9817   9.6898   9.8324  10.6675

          k = 0.1667 0.3849-0.3137 (  3332 PWs)   bands (ev):

   -40.0771 -40.0771 -19.1352 -19.1352 -18.9622 -18.9622 -18.8964 -18.8964
     7.1404   7.1404   8.9965   8.9965   9.6590   9.6590  10.9765

          k = 0.1667 0.4811 0.0000 (  3339 PWs)   bands (ev):

   -40.0821 -40.0609 -19.1311 -19.0753 -19.0480 -18.9972 -18.9161 -18.9141
     7.0545   8.2473   8.2583   8.5345   9.8666  10.1087  10.4881

          k = 0.1667 0.4811 0.0784 (  3334 PWs)   bands (ev):

   -40.0813 -40.0617 -19.1416 -19.0919 -19.0300 -18.9918 -18.9251 -18.9010
     7.0898   8.1467   8.3495   8.6060   9.8388  10.0456  10.5067

          k = 0.1667 0.4811 0.1568 (  3335 PWs)   bands (ev):

   -40.0790 -40.0640 -19.1593 -19.1175 -19.0160 -18.9670 -18.9337 -18.8874
     7.1934   7.9895   8.5114   8.7665   9.7496   9.8712  10.5946

          k = 0.1667 0.4811 0.2353 (  3335 PWs)   bands (ev):

   -40.0755 -40.0674 -19.1680 -19.1438 -19.0013 -18.9647 -18.9185 -18.8838
     7.3572   7.7868   8.7400   8.9352   9.6204   9.6397  10.7820

          k = 0.1667 0.4811-0.3137 (  3334 PWs)   bands (ev):

   -40.0715 -40.0715 -19.1626 -19.1626 -18.9826 -18.9826 -18.8948 -18.8948
     7.5644   7.5644   8.9488   8.9488   9.5258   9.5258  11.0666

          k = 0.1667 0.5774 0.0000 (  3320 PWs)   bands (ev):

   -40.0771 -40.0617 -19.1466 -19.0796 -19.0272 -19.0106 -18.9304 -18.9214
     7.5576   8.0303   8.2308   8.4396   9.9105   9.9425  10.6164

          k = 0.1667 0.5774 0.0784 (  3332 PWs)   bands (ev):

   -40.0766 -40.0623 -19.1549 -19.0934 -19.0325 -18.9872 -18.9370 -18.9105
     7.5496   8.0172   8.3224   8.4719   9.8740   9.9069  10.6295

          k = 0.1667 0.5774 0.1568 (  3334 PWs)   bands (ev):

   -40.0749 -40.0640 -19.1701 -19.1234 -19.0267 -18.9503 -18.9500 -18.8943
     7.5563   7.9555   8.5533   8.5924   9.7671   9.7746  10.7074

          k = 0.1667 0.5774 0.2353 (  3339 PWs)   bands (ev):

   -40.0724 -40.0665 -19.1782 -19.1530 -19.0109 -18.9689 -18.9163 -18.8867
     7.6110   7.8419   8.7995   8.8363   9.5557   9.5949  10.8859

          k = 0.1667 0.5774-0.3137 (  3336 PWs)   bands (ev):

   -40.0694 -40.0694 -19.1726 -19.1726 -18.9903 -18.9903 -18.8939 -18.8939
     7.7141   7.7141   8.9791   8.9791   9.4334   9.4334  11.1554

          k = 0.2500 0.4330 0.0000 (  3348 PWs)   bands (ev):

   -40.0821 -40.0608 -19.1083 -19.0786 -19.0483 -18.9965 -18.9370 -18.9138
     7.0187   8.3111   8.4428   8.4835   9.7907  10.1186  10.4551

          k = 0.2500 0.4330 0.0784 (  3335 PWs)   bands (ev):

   -40.0813 -40.0616 -19.1103 -19.1066 -19.0160 -19.0067 -18.9394 -18.9031
     7.0656   8.2491   8.4800   8.5595   9.7747  10.0143  10.4654

          k = 0.2500 0.4330 0.1568 (  3332 PWs)   bands (ev):

   -40.0790 -40.0639 -19.1350 -19.1195 -19.0178 -18.9829 -18.9388 -18.8874
     7.2008   8.1112   8.5895   8.7180   9.7080   9.7710  10.5224

          k = 0.2500 0.4330 0.2353 (  3340 PWs)   bands (ev):

   -40.0755 -40.0674 -19.1495 -19.1357 -19.0140 -18.9840 -18.9157 -18.8820
     7.4078   7.9066   8.7596   8.8944   9.5134   9.5718  10.6817

          k = 0.2500 0.4330-0.3137 (  3344 PWs)   bands (ev):

   -40.0715 -40.0715 -19.1486 -19.1486 -18.9997 -18.9997 -18.8920 -18.8920
     7.6571   7.6571   8.9277   8.9277   9.4316   9.4316  10.9669

          k = 0.2500 0.5292 0.0000 (  3334 PWs)   bands (ev):

   -40.0737 -40.0628 -19.1235 -19.0673 -19.0312 -19.0120 -18.9597 -18.9430
     7.7104   8.2603   8.3132   8.3780   9.7648   9.8931  10.6792

          k = 0.2500 0.5292 0.0784 (  3339 PWs)   bands (ev):

   -40.0733 -40.0632 -19.1265 -19.0862 -19.0467 -18.9867 -18.9640 -18.9263
     7.7387   8.2332   8.3456   8.4667   9.7244   9.7978  10.6833

          k = 0.2500 0.5292 0.1568 (  3337 PWs)   bands (ev):

   -40.0721 -40.0644 -19.1389 -19.1134 -19.0563 -18.9859 -18.9391 -18.9020
     7.8169   8.1898   8.4694   8.6499   9.5482   9.6104  10.7187

          k = 0.2500 0.5292 0.2353 (  3342 PWs)   bands (ev):

   -40.0703 -40.0662 -19.1512 -19.1374 -19.0464 -19.0046 -18.9075 -18.8876
     7.9261   8.1300   8.6737   8.8876   9.2482   9.4072  10.8329

          k = 0.2500 0.5292-0.3137 (  3336 PWs)   bands (ev):

   -40.0682 -40.0682 -19.1515 -19.1515 -19.0266 -19.0266 -18.8892 -18.8892
     8.0393   8.0393   8.9389   8.9389   9.1571   9.1571  11.0626

          k = 0.3333 0.5774 0.0000 (  3360 PWs)   bands (ev):

   -40.0671 -40.0671 -19.1140 -19.0526 -19.0526 -18.9855 -18.9762 -18.9762
     8.1594   8.1594   8.2628   8.3495   9.7615   9.7615  10.7739

          k = 0.3333 0.5774 0.0784 (  3339 PWs)   bands (ev):

   -40.0671 -40.0671 -19.1092 -19.0741 -19.0741 -18.9904 -18.9545 -18.9545
     8.2052   8.2052   8.2819   8.3682   9.6839   9.6839  10.7727

          k = 0.3333 0.5774 0.1568 (  3330 PWs)   bands (ev):

   -40.0671 -40.0671 -19.1072 -19.1072 -19.0954 -19.0045 -18.9207 -18.9207
     8.3323   8.3357   8.3357   8.4109   9.4834   9.4834  10.7896

          k = 0.3333 0.5774 0.2353 (  3327 PWs)   bands (ev):

   -40.0671 -40.0671 -19.1312 -19.1312 -19.0747 -19.0255 -18.8961 -18.8961
     8.3947   8.4450   8.5237   8.5237   9.2332   9.2332  10.8761

          k = 0.3333 0.5774-0.3137 (  3336 PWs)   bands (ev):

   -40.0671 -40.0671 -19.1398 -19.1398 -19.0501 -19.0501 -18.8872 -18.8872
     8.4403   8.4403   8.6545   8.6545   9.0784   9.0784  11.0805

     the Fermi energy is     8.8160 ev

!    total energy              =    -306.87247729 Ry
     total all-electron energy =     -3050.013248 Ry
     estimated scf accuracy    <          6.8E-09 Ry
     smearing contrib. (-TS)   =      -0.00103939 Ry
     internal energy E=F+TS    =    -306.87143790 Ry

     The total energy is F=E-TS. E is the sum of the following terms:
     one-electron contribution =     -74.40475011 Ry
     hartree contribution      =      42.28401568 Ry
     xc contribution           =     -34.52761397 Ry
     ewald contribution        =    -126.46581261 Ry
     one-center paw contrib.   =    -113.75727690 Ry

     convergence has been achieved in  12 iterations

     Forces acting on atoms (cartesian axes, Ry/au):

     atom    1 type  1   force =    -0.00000000   -0.00000000    0.00000000
     atom    2 type  1   force =    -0.00000000   -0.00000000    0.00000000
     The non-local contrib.  to forces
     atom    1 type  1   force =     0.00000000    0.00000000    0.00000000
     atom    2 type  1   force =     0.00000000   -0.00000000    0.00000000
     The ionic contribution  to forces
     atom    1 type  1   force =     0.00000000   -0.00000000    0.00000000
     atom    2 type  1   force =    -0.00000000    0.00000000    0.00000000
     The local contribution  to forces
     atom    1 type  1   force =     0.00000000    0.00000000    0.00000000
     atom    2 type  1   force =    -0.00000000    0.00000000    0.00000000
     The core correction contribution to forces
     atom    1 type  1   force =    -0.00000000   -0.00000000   -0.00000000
     atom    2 type  1   force =     0.00000000   -0.00000000   -0.00000000
     The Hubbard contrib.    to forces
     atom    1 type  1   force =     0.00000000    0.00000000    0.00000000
     atom    2 type  1   force =     0.00000000    0.00000000    0.00000000
     The SCF correction term to forces
     atom    1 type  1   force =     0.00000000   -0.00000000    0.00000000
     atom    2 type  1   force =    -0.00000000   -0.00000000    0.00000000

     Total force =     0.000000     Total SCF correction =     0.000000


     Computing stress (Cartesian axis) and pressure

          total   stress  (Ry/bohr**3)                   (kbar)     P=      -57.61
  -0.00035149  -0.00000000   0.00000000          -51.71       -0.00        0.00
  -0.00000000  -0.00035149   0.00000000           -0.00      -51.71        0.00
   0.00000000  -0.00000000  -0.00047193            0.00       -0.00      -69.42


     BFGS Geometry Optimization
     Energy error            =      0.0E+00 Ry
     Gradient error          =      1.2E-27 Ry/Bohr
     Cell gradient error     =      6.9E+01 kbar

     number of scf cycles    =   1
     number of bfgs steps    =   0

     enthalpy           new  =    -306.8724772903 Ry

     new trust radius        =       0.0433512762 bohr
     new conv_thr            =       0.0000000100 Ry

     new unit-cell volume =    327.70664 a.u.^3 (    48.56111 Ang^3 )
     density =      3.04991 g/cm^3

CELL_PARAMETERS (alat=  6.25310370)
   0.991212796   0.000000000   0.000000000
  -0.495606398   0.858415462  -0.000000000
   0.000000000   0.000000000   1.575193530

ATOMIC_POSITIONS (crystal)
Sc           -0.0000000000       -0.0000000000       -0.0000000000
Sc            0.6666666667        0.3333333333        0.5000000000



     Writing config-only to output data dir sc_vcrelax.out/scandium.save/
     NEW-OLD atomic charge density approx. for the potential

     Check: negative core charge=   -0.000009
     extrapolated charge   21.34100, renormalised to   22.00000

     total cpu time spent up to now is       33.2 secs

     Self-consistent Calculation

     iteration #  1     ecut=    70.00 Ry     beta= 0.70
     Davidson diagonalization with overlap
     c_bands:  2 eigenvalues not converged
     c_bands:  1 eigenvalues not converged
     c_bands:  1 eigenvalues not converged
     c_bands:  1 eigenvalues not converged
     c_bands:  1 eigenvalues not converged
     c_bands:  2 eigenvalues not converged
     c_bands:  1 eigenvalues not converged
     ethr =  1.00E-06,  avg # of iterations = 19.9

     total cpu time spent up to now is       37.8 secs

     total energy              =    -306.75275767 Ry
     estimated scf accuracy    <       0.08892392 Ry

     iteration #  2     ecut=    70.00 Ry     beta= 0.70
     Davidson diagonalization with overlap
     ethr =  4.04E-04,  avg # of iterations =  7.4

     total cpu time spent up to now is       39.7 secs

     total energy              =    -306.87911353 Ry
     estimated scf accuracy    <       0.14913734 Ry

     iteration #  3     ecut=    70.00 Ry     beta= 0.70
     Davidson diagonalization with overlap
     ethr =  4.04E-04,  avg # of iterations =  1.3

     total cpu time spent up to now is       40.6 secs

     total energy              =    -306.87418615 Ry
     estimated scf accuracy    <       0.04484312 Ry

     iteration #  4     ecut=    70.00 Ry     beta= 0.70
     Davidson diagonalization with overlap
     ethr =  2.04E-04,  avg # of iterations =  2.4

     total cpu time spent up to now is       41.6 secs

     total energy              =    -306.87283333 Ry
     estimated scf accuracy    <       0.01973303 Ry

     iteration #  5     ecut=    70.00 Ry     beta= 0.70
     Davidson diagonalization with overlap
     ethr =  8.97E-05,  avg # of iterations =  2.4

     total cpu time spent up to now is       42.6 secs

     total energy              =    -306.87436658 Ry
     estimated scf accuracy    <       0.00900322 Ry

     iteration #  6     ecut=    70.00 Ry     beta= 0.70
     Davidson diagonalization with overlap
     ethr =  4.09E-05,  avg # of iterations =  4.3

     total cpu time spent up to now is       43.7 secs

     total energy              =    -306.87638814 Ry
     estimated scf accuracy    <       0.00552424 Ry

     iteration #  7     ecut=    70.00 Ry     beta= 0.70
     Davidson diagonalization with overlap
     ethr =  2.51E-05,  avg # of iterations =  2.6

     total cpu time spent up to now is       44.8 secs

     total energy              =    -306.87741544 Ry
     estimated scf accuracy    <       0.00492640 Ry

     iteration #  8     ecut=    70.00 Ry     beta= 0.70
     Davidson diagonalization with overlap
     ethr =  2.24E-05,  avg # of iterations =  1.4

     total cpu time spent up to now is       45.7 secs

     total energy              =    -306.88027498 Ry
     estimated scf accuracy    <       0.00562497 Ry

     iteration #  9     ecut=    70.00 Ry     beta= 0.70
     Davidson diagonalization with overlap
     ethr =  2.24E-05,  avg # of iterations =  1.2

     total cpu time spent up to now is       46.6 secs

     total energy              =    -306.88055724 Ry
     estimated scf accuracy    <       0.01056137 Ry

     iteration # 10     ecut=    70.00 Ry     beta= 0.70
     Davidson diagonalization with overlap
     ethr =  2.24E-05,  avg # of iterations =  1.0

     total cpu time spent up to now is       47.5 secs

     total energy              =    -306.91248551 Ry
     estimated scf accuracy    <       0.01073137 Ry

     iteration # 11     ecut=    70.00 Ry     beta= 0.70
     Davidson diagonalization with overlap
     ethr =  2.24E-05,  avg # of iterations =  8.0

     total cpu time spent up to now is       49.5 secs

     total energy              =    -306.90684038 Ry
     estimated scf accuracy    <       0.11711542 Ry

     iteration # 12     ecut=    70.00 Ry     beta= 0.70
     Davidson diagonalization with overlap
     ethr =  2.24E-05,  avg # of iterations =  2.1

     total cpu time spent up to now is       50.6 secs

     total energy              =    -306.90021046 Ry
     estimated scf accuracy    <       0.08366041 Ry

     iteration # 13     ecut=    70.00 Ry     beta= 0.70
     Davidson diagonalization with overlap
     ethr =  2.24E-05,  avg # of iterations =  2.1

     total cpu time spent up to now is       51.5 secs

     total energy              =    -306.89323575 Ry
     estimated scf accuracy    <       0.06964167 Ry

     iteration # 14     ecut=    70.00 Ry     beta= 0.70
     Davidson diagonalization with overlap
     ethr =  2.24E-05,  avg # of iterations =  2.8

     total cpu time spent up to now is       52.5 secs

     total energy              =    -306.87322056 Ry
     estimated scf accuracy    <       0.05410235 Ry

     iteration # 15     ecut=    70.00 Ry     beta= 0.70
     Davidson diagonalization with overlap
     ethr =  2.24E-05,  avg # of iterations =  7.0

     total cpu time spent up to now is       54.3 secs

     total energy              =    -306.87413509 Ry
     estimated scf accuracy    <       0.00957104 Ry

     iteration # 16     ecut=    70.00 Ry     beta= 0.70
     Davidson diagonalization with overlap
     ethr =  2.24E-05,  avg # of iterations =  4.3

     total cpu time spent up to now is       55.6 secs

     total energy              =    -306.87397743 Ry
     estimated scf accuracy    <       0.00189028 Ry

     iteration # 17     ecut=    70.00 Ry     beta= 0.70
     Davidson diagonalization with overlap
     ethr =  8.59E-06,  avg # of iterations =  8.2

     total cpu time spent up to now is       57.6 secs

     total energy              =    -306.87575586 Ry
     estimated scf accuracy    <       0.00079556 Ry

     iteration # 18     ecut=    70.00 Ry     beta= 0.70
     Davidson diagonalization with overlap
     ethr =  3.62E-06,  avg # of iterations =  2.3

     total cpu time spent up to now is       58.6 secs

     total energy              =    -306.87581184 Ry
     estimated scf accuracy    <       0.00008536 Ry

     iteration # 19     ecut=    70.00 Ry     beta= 0.70
     Davidson diagonalization with overlap
     ethr =  3.88E-07,  avg # of iterations = 10.1

     total cpu time spent up to now is       60.7 secs

     total energy              =    -306.87597484 Ry
     estimated scf accuracy    <       0.00043787 Ry

     iteration # 20     ecut=    70.00 Ry     beta= 0.70
     Davidson diagonalization with overlap
     ethr =  3.88E-07,  avg # of iterations =  1.9

     total cpu time spent up to now is       61.6 secs

     total energy              =    -306.87593528 Ry
     estimated scf accuracy    <       0.00021778 Ry

     iteration # 21     ecut=    70.00 Ry     beta= 0.70
     Davidson diagonalization with overlap
     ethr =  3.88E-07,  avg # of iterations =  3.3

     total cpu time spent up to now is       62.7 secs

     total energy              =    -306.87593953 Ry
     estimated scf accuracy    <       0.00010354 Ry

     iteration # 22     ecut=    70.00 Ry     beta= 0.70
     Davidson diagonalization with overlap
     ethr =  3.88E-07,  avg # of iterations =  1.5

     total cpu time spent up to now is       63.6 secs

     total energy              =    -306.87589628 Ry
     estimated scf accuracy    <       0.00008306 Ry

     iteration # 23     ecut=    70.00 Ry     beta= 0.70
     Davidson diagonalization with overlap
     ethr =  3.78E-07,  avg # of iterations =  4.5

     total cpu time spent up to now is       64.8 secs

     total energy              =    -306.87592413 Ry
     estimated scf accuracy    <       0.00000092 Ry

     iteration # 24     ecut=    70.00 Ry     beta= 0.70
     Davidson diagonalization with overlap
     ethr =  4.20E-09,  avg # of iterations = 14.2

     total cpu time spent up to now is       67.7 secs

     total energy              =    -306.87593155 Ry
     estimated scf accuracy    <       0.00000071 Ry

     iteration # 25     ecut=    70.00 Ry     beta= 0.70
     Davidson diagonalization with overlap
     ethr =  3.24E-09,  avg # of iterations =  1.9

     total cpu time spent up to now is       68.6 secs

     total energy              =    -306.87593155 Ry
     estimated scf accuracy    <       0.00000019 Ry

     iteration # 26     ecut=    70.00 Ry     beta= 0.70
     Davidson diagonalization with overlap
     ethr =  8.50E-10,  avg # of iterations =  6.7

     total cpu time spent up to now is       70.0 secs

     total energy              =    -306.87593168 Ry
     estimated scf accuracy    <       0.00000001 Ry

     iteration # 27     ecut=    70.00 Ry     beta= 0.70
     Davidson diagonalization with overlap
     ethr =  6.16E-11,  avg # of iterations = 10.8

     total cpu time spent up to now is       72.2 secs

     total energy              =    -306.87593171 Ry
     estimated scf accuracy    <       0.00000001 Ry

     iteration # 28     ecut=    70.00 Ry     beta= 0.70
     Davidson diagonalization with overlap
     ethr =  4.56E-11,  avg # of iterations =  1.7

     total cpu time spent up to now is       73.1 secs

     End of self-consistent calculation

          k = 0.0000 0.0000 0.0000 (  3381 PWs)   bands (ev):

   -39.7301 -39.6562 -18.8421 -18.4717 -18.4717 -18.4066 -18.4066 -18.3872
     4.0332   7.4438   9.7148  10.7212  10.7212  10.8560  11.1469

          k = 0.0000 0.0000 0.0794 (  3363 PWs)   bands (ev):

   -39.7273 -39.6590 -18.8254 -18.4693 -18.4693 -18.4091 -18.4091 -18.4051
     4.1376   7.2993   9.6700  10.6754  10.6754  10.7878  11.0878

          k = 0.0000 0.0000 0.1587 (  3315 PWs)   bands (ev):

   -39.7193 -39.6671 -18.7775 -18.4622 -18.4622 -18.4559 -18.4162 -18.4162
     4.4436   6.8684   9.6528  10.5982  10.6089  10.6091  10.9448

          k = 0.0000 0.0000 0.2381 (  3320 PWs)   bands (ev):

   -39.7074 -39.6791 -18.7051 -18.5312 -18.4517 -18.4517 -18.4268 -18.4268
     4.9283   6.2353   9.7800  10.3231  10.5960  10.5962  10.7834

          k = 0.0000-0.0000-0.3174 (  3326 PWs)   bands (ev):

   -39.6933 -39.6933 -18.6188 -18.6188 -18.4392 -18.4392 -18.4392 -18.4392
     5.5495   5.5495  10.0272  10.0272  10.6570  10.6570  10.6570

          k = 0.0000 0.0971-0.0000 (  3361 PWs)   bands (ev):

   -39.7264 -39.6547 -18.8323 -18.4918 -18.4784 -18.4276 -18.4094 -18.3913
     4.1882   7.5763   9.5783  10.4437  10.8346  11.0215  11.0858

          k = 0.0000 0.0971 0.0794 (  3360 PWs)   bands (ev):

   -39.7236 -39.6574 -18.8166 -18.4888 -18.4758 -18.4366 -18.4120 -18.4021
     4.2911   7.4318   9.5360  10.4390  10.7762  10.8933  11.0171

          k = 0.0000 0.0971 0.1587 (  3346 PWs)   bands (ev):

   -39.7159 -39.6653 -18.7717 -18.4811 -18.4737 -18.4683 -18.4203 -18.4195
     4.5925   6.9988   9.5339  10.4442  10.6104  10.6982  11.0314

          k = 0.0000 0.0971 0.2381 (  3345 PWs)   bands (ev):

   -39.7043 -39.6769 -18.7039 -18.5420 -18.4674 -18.4572 -18.4362 -18.4308
     5.0706   6.3657   9.6838  10.2836  10.4921  10.6826  10.7502

          k = 0.0000 0.0971-0.3174 (  3338 PWs)   bands (ev):

   -39.6906 -39.6906 -18.6231 -18.6231 -18.4521 -18.4521 -18.4440 -18.4440
     5.6847   5.6847   9.9555   9.9555  10.5977  10.5979  10.7436

          k = 0.0000 0.1942-0.0000 (  3355 PWs)   bands (ev):

   -39.7159 -39.6508 -18.8044 -18.5469 -18.4962 -18.4837 -18.4175 -18.4039
     4.6376   7.9302   9.2657  10.0149  10.7883  11.1639  11.1909

          k = 0.0000 0.1942 0.0794 (  3354 PWs)   bands (ev):

   -39.7134 -39.6533 -18.7921 -18.5422 -18.4945 -18.4932 -18.4205 -18.4108
     4.7352   7.7876   9.2346  10.0348  10.7792  10.9257  11.0026

          k = 0.0000 0.1942 0.1587 (  3354 PWs)   bands (ev):

   -39.7064 -39.6604 -18.7571 -18.5353 -18.5204 -18.4847 -18.4291 -18.4288
     5.0217   7.3513   9.2750  10.0928  10.5444  10.7896  10.9084

          k = 0.0000 0.1942 0.2381 (  3349 PWs)   bands (ev):

   -39.6959 -39.6710 -18.7045 -18.5807 -18.5050 -18.4720 -18.4532 -18.4419
     5.4771   6.7248   9.4714  10.0814  10.3204  10.6339  10.9022

          k = 0.0000 0.1942-0.3174 (  3340 PWs)   bands (ev):

   -39.6834 -39.6834 -18.6423 -18.6423 -18.4798 -18.4798 -18.4569 -18.4569
     6.0653   6.0653   9.7734   9.7734  10.4438  10.4438  10.9777

          k = 0.0000 0.2912-0.0000 (  3328 PWs)   bands (ev):

   -39.7010 -39.6460 -18.7624 -18.6228 -18.5580 -18.5194 -18.4293 -18.4248
     5.3328   8.3383   8.9288   9.5785  10.5667  10.8479  10.9363

          k = 0.0000 0.2912 0.0794 (  3329 PWs)   bands (ev):

   -39.6989 -39.6481 -18.7586 -18.6132 -18.5684 -18.5160 -18.4327 -18.4283
     5.4199   8.2044   8.9252   9.6103  10.5342  10.7910  10.9500

          k = 0.0000 0.2912 0.1587 (  3345 PWs)   bands (ev):

   -39.6930 -39.6541 -18.7454 -18.6090 -18.5741 -18.5063 -18.4426 -18.4408
     5.6755   7.7831   9.0306   9.6895  10.3791  10.6807  11.0018

          k = 0.0000 0.2912 0.2381 (  3344 PWs)   bands (ev):

   -39.6841 -39.6631 -18.7209 -18.6454 -18.5390 -18.4918 -18.4648 -18.4573
     6.0823   7.2038   9.2603   9.7282  10.2157  10.5029  11.1074

          k = 0.0000 0.2912-0.3174 (  3340 PWs)   bands (ev):

   -39.6736 -39.6736 -18.6861 -18.6861 -18.4992 -18.4992 -18.4746 -18.4746
     6.6087   6.6087   9.5410   9.5410  10.2954  10.2954  11.2679

          k = 0.0000 0.3883-0.0000 (  3326 PWs)   bands (ev):

   -39.6849 -39.6425 -18.7131 -18.6995 -18.6299 -18.5420 -18.4530 -18.4417
     6.1841   8.4861   8.6540   9.2454  10.5992  10.6006  10.7158

          k = 0.0000 0.3883 0.0794 (  3331 PWs)   bands (ev):

   -39.6833 -39.6441 -18.7415 -18.6660 -18.6352 -18.5382 -18.4527 -18.4455
     6.2514   8.3587   8.7125   9.2880  10.4430  10.6875  10.7673

          k = 0.0000 0.3883 0.1587 (  3326 PWs)   bands (ev):

   -39.6787 -39.6487 -18.7599 -18.6796 -18.5989 -18.5274 -18.4569 -18.4565
     6.4484   8.0331   8.8746   9.3790  10.2906  10.6356  10.9189

          k = 0.0000 0.3883 0.2381 (  3329 PWs)   bands (ev):

   -39.6718 -39.6556 -18.7603 -18.7139 -18.5480 -18.5112 -18.4730 -18.4729
     6.7602   7.6052   9.1069   9.4338  10.2003  10.4587  11.1591

          k = 0.0000 0.3883-0.3174 (  3338 PWs)   bands (ev):

   -39.6637 -39.6637 -18.7435 -18.7435 -18.5041 -18.5041 -18.4921 -18.4921
     7.1600   7.1600   9.3342   9.3342  10.2662  10.2662  11.4671

          k = 0.0000 0.4854-0.0000 (  3346 PWs)   bands (ev):

   -39.6715 -39.6414 -18.7559 -18.6812 -18.6673 -18.5581 -18.4833 -18.4511
     7.0387   8.3125   8.4795   9.0034  10.4307  10.5690  10.8215

          k = 0.0000 0.4854 0.0794 (  3337 PWs)   bands (ev):

   -39.6704 -39.6425 -18.7721 -18.6971 -18.6389 -18.5541 -18.4792 -18.4552
     7.0673   8.2224   8.5804   9.0307  10.4390  10.6337  10.7726

          k = 0.0000 0.4854 0.1587 (  3338 PWs)   bands (ev):

   -39.6671 -39.6458 -18.7933 -18.7293 -18.5894 -18.5426 -18.4744 -18.4669
     7.1571   8.0315   8.7825   9.1272  10.4285  10.6455  10.8246

          k = 0.0000 0.4854 0.2381 (  3334 PWs)   bands (ev):

   -39.6622 -39.6507 -18.8004 -18.7639 -18.5409 -18.5253 -18.4843 -18.4805
     7.3128   7.7832   9.0248   9.2425  10.3668  10.4953  11.1310

          k = 0.0000 0.4854-0.3174 (  3334 PWs)   bands (ev):

   -39.6564 -39.6564 -18.7898 -18.7898 -18.5049 -18.5049 -18.5029 -18.5029
     7.5292   7.5292   9.2203   9.2203  10.3723  10.3723  11.5325

          k = 0.0000-0.5825 0.0000 (  3326 PWs)   bands (ev):

   -39.6658 -39.6418 -18.7765 -18.6997 -18.6457 -18.5640 -18.4992 -18.4545
     7.5483   8.0816   8.4203   8.8907  10.3706  10.5179  10.9246

          k = 0.0000-0.5825 0.0794 (  3336 PWs)   bands (ev):

   -39.6649 -39.6427 -18.7894 -18.7142 -18.6242 -18.5599 -18.4930 -18.4588
     7.5196   8.0614   8.5435   8.8803  10.4319  10.5862  10.8497

          k = 0.0000-0.5825 0.1587 (  3330 PWs)   bands (ev):

   -39.6623 -39.6453 -18.8089 -18.7473 -18.5800 -18.5481 -18.4836 -18.4707
     7.4924   7.9711   8.8286   8.9211  10.5390  10.6612  10.7880

          k = 0.0000-0.5825 0.2381 (  3338 PWs)   bands (ev):

   -39.6584 -39.6492 -18.8166 -18.7821 -18.5355 -18.5305 -18.4886 -18.4844
     7.5304   7.8101   9.0614   9.1113  10.4738  10.5500  11.1130

          k = 0.0000-0.5825-0.3174 (  3352 PWs)   bands (ev):

   -39.6538 -39.6538 -18.8073 -18.8073 -18.5096 -18.5096 -18.5019 -18.5019
     7.6445   7.6445   9.1913   9.1913  10.4550  10.4550  11.5418

          k = 0.0841 0.1456-0.0000 (  3369 PWs)   bands (ev):

   -39.7193 -39.6520 -18.8134 -18.5254 -18.4994 -18.4584 -18.4176 -18.3997
     4.4907   7.8219   9.3592  10.1307  10.8698  11.0721  11.1401

          k = 0.0841 0.1456 0.0794 (  3357 PWs)   bands (ev):

   -39.7167 -39.6546 -18.7999 -18.5213 -18.4987 -18.4675 -18.4205 -18.4070
     4.5902   7.6783   9.3236  10.1462  10.8790  10.8924  10.9592

          k = 0.0841 0.1456 0.1587 (  3351 PWs)   bands (ev):

   -39.7095 -39.6619 -18.7614 -18.5142 -18.5096 -18.4789 -18.4286 -18.4245
     4.8819   7.2421   9.3498  10.1954  10.5719  10.8148  10.8645

          k = 0.0841 0.1456 0.2381 (  3348 PWs)   bands (ev):

   -39.6986 -39.6728 -18.7033 -18.5670 -18.4921 -18.4713 -18.4451 -18.4405
     5.3456   6.6116   9.5338  10.1622  10.3529  10.6615  10.8478

          k = 0.0841 0.1456-0.3174 (  3340 PWs)   bands (ev):

   -39.6857 -39.6857 -18.6347 -18.6347 -18.4724 -18.4724 -18.4531 -18.4531
     5.9434   5.9434   9.8318   9.8318  10.4839  10.4839  10.9062

          k = 0.0841 0.2427-0.0000 (  3334 PWs)   bands (ev):

   -39.7066 -39.6477 -18.7784 -18.5858 -18.5485 -18.4962 -18.4316 -18.4165
     5.0653   8.2237   9.0542   9.7049  10.6366  10.8324  11.1345

          k = 0.0841 0.2427 0.0794 (  3343 PWs)   bands (ev):

   -39.7043 -39.6499 -18.7704 -18.5792 -18.5529 -18.5000 -18.4351 -18.4200
     5.1571   8.0851   9.0349   9.7336  10.6429  10.7592  11.0541

          k = 0.0841 0.2427 0.1587 (  3347 PWs)   bands (ev):

   -39.6980 -39.6563 -18.7470 -18.5805 -18.5535 -18.5010 -18.4449 -18.4320
     5.4267   7.6494   9.1135   9.8117  10.4534  10.6851  11.0006

          k = 0.0841 0.2427 0.2381 (  3341 PWs)   bands (ev):

   -39.6885 -39.6659 -18.7108 -18.6191 -18.5258 -18.4934 -18.4595 -18.4517
     5.8559   7.0404   9.3364   9.8573  10.2337  10.5163  11.0554

          k = 0.0841 0.2427-0.3174 (  3324 PWs)   bands (ev):

   -39.6772 -39.6772 -18.6659 -18.6659 -18.4969 -18.4969 -18.4676 -18.4676
     6.4119   6.4119   9.6346   9.6346  10.3118  10.3119  11.1662

          k = 0.0841 0.3398-0.0000 (  3331 PWs)   bands (ev):

   -39.6910 -39.6436 -18.7324 -18.6607 -18.6079 -18.5312 -18.4466 -18.4414
     5.8464   8.5379   8.7727   9.3230  10.5359  10.5723  10.8877

          k = 0.0841 0.3398 0.0794 (  3332 PWs)   bands (ev):

   -39.6892 -39.6454 -18.7398 -18.6457 -18.6119 -18.5312 -18.4521 -18.4398
     5.9240   8.4058   8.8005   9.3624  10.4316  10.6545  10.8663

          k = 0.0841 0.3398 0.1587 (  3328 PWs)   bands (ev):

   -39.6841 -39.6505 -18.7457 -18.6521 -18.5896 -18.5260 -18.4639 -18.4437
     6.1515   8.0169   8.9456   9.4561  10.2823  10.6048  10.9362

          k = 0.0841 0.3398 0.2381 (  3338 PWs)   bands (ev):

   -39.6764 -39.6582 -18.7380 -18.6842 -18.5475 -18.5138 -18.4793 -18.4585
     6.5129   7.5041   9.1787   9.5312  10.1446  10.4018  11.1339

          k = 0.0841 0.3398-0.3174 (  3336 PWs)   bands (ev):

   -39.6673 -39.6673 -18.7160 -18.7160 -18.5147 -18.5147 -18.4800 -18.4800
     6.9790   6.9790   9.4244   9.4244  10.1932  10.1932  11.3808

          k = 0.0841 0.4369-0.0000 (  3333 PWs)   bands (ev):

   -39.6760 -39.6415 -18.7270 -18.6835 -18.6599 -18.5583 -18.4720 -18.4595
     6.7186   8.4973   8.5684   9.0662  10.4063  10.6471  10.7144

          k = 0.0841 0.4369 0.0794 (  3332 PWs)   bands (ev):

   -39.6747 -39.6428 -18.7491 -18.6810 -18.6425 -18.5555 -18.4729 -18.4591
     6.7698   8.3751   8.6570   9.1179  10.3576  10.6367  10.7487

          k = 0.0841 0.4369 0.1587 (  3328 PWs)   bands (ev):

   -39.6710 -39.6465 -18.7715 -18.7079 -18.5962 -18.5440 -18.4824 -18.4577
     6.9202   8.1262   8.8320   9.2347  10.2534  10.5339  10.8962

          k = 0.0841 0.4369 0.2381 (  3334 PWs)   bands (ev):

   -39.6654 -39.6521 -18.7777 -18.7406 -18.5560 -18.5233 -18.4969 -18.4650
     7.1589   7.8039   9.0677   9.3323  10.1632  10.3432  11.1541

          k = 0.0841 0.4369-0.3174 (  3344 PWs)   bands (ev):

   -39.6588 -39.6588 -18.7663 -18.7663 -18.5285 -18.5285 -18.4849 -18.4849
     7.4649   7.4649   9.2803   9.2803  10.1818  10.1818  11.4922

          k = 0.0841 0.5339-0.0000 (  3335 PWs)   bands (ev):

   -39.6659 -39.6417 -18.7654 -18.6900 -18.6461 -18.5731 -18.4988 -18.4670
     7.4746   8.2459   8.4629   8.8857  10.3494  10.4797  10.9188

          k = 0.0841 0.5339 0.0794 (  3338 PWs)   bands (ev):

   -39.6650 -39.6426 -18.7782 -18.7051 -18.6263 -18.5670 -18.4950 -18.4685
     7.4736   8.1972   8.5739   8.9027  10.3686  10.4906  10.9008

          k = 0.0841 0.5339 0.1587 (  3337 PWs)   bands (ev):

   -39.6624 -39.6452 -18.7977 -18.7381 -18.5915 -18.5466 -18.4974 -18.4680
     7.4948   8.0752   8.8069   9.0066  10.3697  10.4430  10.9642

          k = 0.0841 0.5339 0.2381 (  3337 PWs)   bands (ev):

   -39.6584 -39.6492 -18.8056 -18.7723 -18.5621 -18.5189 -18.5094 -18.4701
     7.5721   7.8961   9.0540   9.1923  10.2496  10.3426  11.2114

          k = 0.0841 0.5339-0.3174 (  3338 PWs)   bands (ev):

   -39.6538 -39.6538 -18.7968 -18.7968 -18.5370 -18.5370 -18.4853 -18.4853
     7.7129   7.7129   9.2344   9.2344  10.2230  10.2230  11.5751

          k = 0.1681 0.2912-0.0000 (  3336 PWs)   bands (ev):

   -39.6932 -39.6440 -18.7391 -18.6273 -18.6192 -18.5183 -18.4574 -18.4375
     5.7316   8.5809   8.8324   9.3215  10.5222  10.5244  10.9817

          k = 0.1681 0.2912 0.0794 (  3342 PWs)   bands (ev):

   -39.6913 -39.6459 -18.7411 -18.6238 -18.6126 -18.5243 -18.4608 -18.4365
     5.8127   8.4450   8.8459   9.3566  10.4725  10.5748  10.9227

          k = 0.1681 0.2912 0.1587 (  3339 PWs)   bands (ev):

   -39.6860 -39.6513 -18.7398 -18.6412 -18.5781 -18.5308 -18.4699 -18.4398
     6.0508   8.0252   8.9838   9.4535  10.3220  10.5639  10.9106

          k = 0.1681 0.2912 0.2381 (  3331 PWs)   bands (ev):

   -39.6780 -39.6592 -18.7273 -18.6710 -18.5399 -18.5273 -18.4804 -18.4542
     6.4297   7.4762   9.2179   9.5561  10.1353  10.3570  11.0910

          k = 0.1681 0.2912-0.3174 (  3332 PWs)   bands (ev):

   -39.6686 -39.6686 -18.7029 -18.7029 -18.5215 -18.5215 -18.4758 -18.4758
     6.9201   6.9201   9.4697   9.4697  10.1457  10.1457  11.3231

          k = 0.1681 0.3883-0.0000 (  3342 PWs)   bands (ev):

   -39.6785 -39.6416 -18.6923 -18.6889 -18.6564 -18.5542 -18.4818 -18.4661
     6.5544   8.6606   8.7309   9.0210  10.3060  10.6182  10.7351

          k = 0.1681 0.3883 0.0794 (  3328 PWs)   bands (ev):

   -39.6771 -39.6430 -18.7241 -18.6793 -18.6306 -18.5597 -18.4866 -18.4593
     6.6178   8.5451   8.7909   9.0688  10.2714  10.6391  10.6822

          k = 0.1681 0.3883 0.1587 (  3337 PWs)   bands (ev):

   -39.6731 -39.6470 -18.7468 -18.6949 -18.5883 -18.5606 -18.4962 -18.4525
     6.8032   8.2611   8.9412   9.1831  10.1756  10.4460  10.8131

          k = 0.1681 0.3883 0.2381 (  3338 PWs)   bands (ev):

   -39.6671 -39.6530 -18.7529 -18.7201 -18.5657 -18.5443 -18.4984 -18.4576
     7.0955   7.8769   9.1523   9.3148  10.0440  10.1927  11.0504

          k = 0.1681 0.3883-0.3174 (  3332 PWs)   bands (ev):

   -39.6601 -39.6601 -18.7425 -18.7425 -18.5501 -18.5501 -18.4768 -18.4768
     7.4676   7.4676   9.3299   9.3299  10.0119  10.0119  11.3693

          k = 0.1681 0.4854-0.0000 (  3339 PWs)   bands (ev):

   -39.6660 -39.6416 -18.7363 -18.6737 -18.6469 -18.5889 -18.4982 -18.4980
     7.3844   8.5497   8.5581   8.8643  10.2251  10.4778  10.8842

          k = 0.1681 0.4854 0.0794 (  3334 PWs)   bands (ev):

   -39.6651 -39.6426 -18.7484 -18.6929 -18.6259 -18.5831 -18.5087 -18.4827
     7.4174   8.4516   8.6530   8.9362  10.2001  10.4123  10.9001

          k = 0.1681 0.4854 0.1587 (  3335 PWs)   bands (ev):

   -39.6624 -39.6452 -18.7685 -18.7216 -18.6102 -18.5553 -18.5182 -18.4672
     7.5152   8.2972   8.8235   9.1035  10.1140  10.2323  10.9844

          k = 0.1681 0.4854 0.2381 (  3335 PWs)   bands (ev):

   -39.6585 -39.6491 -18.7784 -18.7513 -18.5937 -18.5525 -18.5014 -18.4628
     7.6728   8.0958   9.0660   9.2825   9.9793   9.9950  11.1737

          k = 0.1681 0.4854-0.3174 (  3334 PWs)   bands (ev):

   -39.6538 -39.6538 -18.7723 -18.7723 -18.5726 -18.5726 -18.4750 -18.4750
     7.8755   7.8755   9.2923   9.2923   9.8786   9.8786  11.4665

          k = 0.1681 0.5825-0.0000 (  3320 PWs)   bands (ev):

   -39.6604 -39.6427 -18.7534 -18.6781 -18.6238 -18.6039 -18.5162 -18.5040
     7.8811   8.3416   8.5249   8.7701  10.2853  10.2940  11.0167

          k = 0.1681 0.5825 0.0794 (  3332 PWs)   bands (ev):

   -39.6597 -39.6433 -18.7630 -18.6939 -18.6291 -18.5781 -18.5221 -18.4929
     7.8652   8.3311   8.6283   8.7981  10.2498  10.2596  11.0271

          k = 0.1681 0.5825 0.1587 (  3334 PWs)   bands (ev):

   -39.6578 -39.6453 -18.7803 -18.7279 -18.6221 -18.5366 -18.5364 -18.4748
     7.8606   8.2697   8.8820   8.9151  10.1266  10.1443  11.1017

          k = 0.1681 0.5825 0.2381 (  3339 PWs)   bands (ev):

   -39.6549 -39.6481 -18.7895 -18.7612 -18.6043 -18.5571 -18.4989 -18.4661
     7.9102   8.1498   9.1289   9.1865   9.9016   9.9682  11.2827

          k = 0.1681 0.5825-0.3174 (  3336 PWs)   bands (ev):

   -39.6515 -39.6515 -18.7833 -18.7833 -18.5811 -18.5811 -18.4739 -18.4739
     8.0152   8.0152   9.3279   9.3279   9.7875   9.7875  11.5607

          k = 0.2522 0.4369-0.0000 (  3348 PWs)   bands (ev):

   -39.6661 -39.6416 -18.7114 -18.6777 -18.6473 -18.5878 -18.5211 -18.4976
     7.3523   8.6123   8.7547   8.8012  10.1439  10.4907  10.8501

          k = 0.2522 0.4369 0.0794 (  3335 PWs)   bands (ev):

   -39.6651 -39.6425 -18.7136 -18.7102 -18.6100 -18.5996 -18.5239 -18.4853
     7.3984   8.5509   8.7932   8.8818  10.1292  10.3823  10.8587

          k = 0.2522 0.4369 0.1587 (  3332 PWs)   bands (ev):

   -39.6624 -39.6452 -18.7421 -18.7241 -18.6122 -18.5725 -18.5238 -18.4672
     7.5312   8.4171   8.9073   9.0500  10.0643  10.1291  10.9120

          k = 0.2522 0.4369 0.2381 (  3340 PWs)   bands (ev):

   -39.6585 -39.6491 -18.7582 -18.7425 -18.6077 -18.5736 -18.4982 -18.4609
     7.7341   8.2198   9.0861   9.2363   9.8597   9.9256  11.0711

          k = 0.2522 0.4369-0.3174 (  3344 PWs)   bands (ev):

   -39.6538 -39.6538 -18.7571 -18.7571 -18.5914 -18.5914 -18.4718 -18.4718
     7.9777   7.9777   9.2671   9.2671   9.7771   9.7771  11.3637

          k = 0.2522 0.5339-0.0000 (  3334 PWs)   bands (ev):

   -39.6565 -39.6439 -18.7282 -18.6652 -18.6260 -18.6070 -18.5459 -18.5302
     8.0414   8.5774   8.6050   8.6995  10.1208  10.2601  11.0810

          k = 0.2522 0.5339 0.0794 (  3339 PWs)   bands (ev):

   -39.6560 -39.6444 -18.7317 -18.6870 -18.6438 -18.5775 -18.5511 -18.5110
     8.0671   8.5434   8.6521   8.7868  10.0817  10.1616  11.0836

          k = 0.2522 0.5339 0.1587 (  3337 PWs)   bands (ev):

   -39.6546 -39.6457 -18.7459 -18.7175 -18.6547 -18.5752 -18.5244 -18.4834
     8.1390   8.4997   8.7858   8.9778   9.9089   9.9645  11.1161

          k = 0.2522 0.5339 0.2381 (  3342 PWs)   bands (ev):

   -39.6526 -39.6478 -18.7599 -18.7445 -18.6432 -18.5962 -18.4890 -18.4670
     8.2417   8.4402   9.0024   9.2269   9.5988   9.7596  11.2299

          k = 0.2522 0.5339-0.3174 (  3336 PWs)   bands (ev):

   -39.6502 -39.6502 -18.7603 -18.7603 -18.6208 -18.6208 -18.4686 -18.4686
     8.3508   8.3508   9.2819   9.2819   9.5022   9.5022  11.4655

          k = 0.3363 0.5825-0.0000 (  3360 PWs)   bands (ev):

   -39.6489 -39.6489 -18.7181 -18.6493 -18.6493 -18.5738 -18.5671 -18.5671
     8.4851   8.4851   8.5842   8.6376  10.1225  10.1225  11.1792

          k = 0.3363 0.5825 0.0794 (  3339 PWs)   bands (ev):

   -39.6489 -39.6489 -18.7127 -18.6739 -18.6739 -18.5794 -18.5422 -18.5422
     8.5313   8.5313   8.6034   8.6590  10.0437  10.0437  11.1765

          k = 0.3363 0.5825 0.1587 (  3330 PWs)   bands (ev):

   -39.6489 -39.6489 -18.7113 -18.7113 -18.6972 -18.5952 -18.5040 -18.5040
     8.6537   8.6628   8.6628   8.7090   9.8402   9.8402  11.1905

          k = 0.3363 0.5825 0.2381 (  3327 PWs)   bands (ev):

   -39.6488 -39.6488 -18.7382 -18.7382 -18.6740 -18.6188 -18.4763 -18.4763
     8.7146   8.7525   8.8509   8.8509   9.5883   9.5883  11.2757

          k = 0.3363 0.5825-0.3174 (  3336 PWs)   bands (ev):

   -39.6488 -39.6488 -18.7478 -18.7478 -18.6465 -18.6465 -18.4664 -18.4664
     8.7558   8.7558   8.9788   8.9788   9.4358   9.4358  11.4849

     the Fermi energy is     9.1487 ev

!    total energy              =    -306.87593170 Ry
     total all-electron energy =     -3050.016702 Ry
     estimated scf accuracy    <          4.6E-09 Ry
     smearing contrib. (-TS)   =      -0.00101301 Ry
     internal energy E=F+TS    =    -306.87491870 Ry

     The total energy is F=E-TS. E is the sum of the following terms:
     one-electron contribution =     -72.51379099 Ry
     hartree contribution      =      41.67519646 Ry
     xc contribution           =     -34.56570410 Ry
     ewald contribution        =    -127.71355081 Ry
     one-center paw contrib.   =    -113.75706926 Ry

     convergence has been achieved in  28 iterations

     Forces acting on atoms (cartesian axes, Ry/au):

     atom    1 type  1   force =    -0.00000000   -0.00000000    0.00000000
     atom    2 type  1   force =     0.00000000    0.00000000   -0.00000000
     The non-local contrib.  to forces
     atom    1 type  1   force =     0.00000000   -0.00000000    0.00000000
     atom    2 type  1   force =     0.00000000   -0.00000000    0.00000000
     The ionic contribution  to forces
     atom    1 type  1   force =     0.00000000   -0.00000000   -0.00000000
     atom    2 type  1   force =    -0.00000000    0.00000000    0.00000000
     The local contribution  to forces
     atom    1 type  1   force =     0.00000000    0.00000000    0.00000000
     atom    2 type  1   force =    -0.00000000    0.00000000    0.00000000
     The core correction contribution to forces
     atom    1 type  1   force =    -0.00000000   -0.00000000    0.00000000
     atom    2 type  1   force =     0.00000000   -0.00000000   -0.00000000
     The Hubbard contrib.    to forces
     atom    1 type  1   force =     0.00000000    0.00000000    0.00000000
     atom    2 type  1   force =     0.00000000    0.00000000    0.00000000
     The SCF correction term to forces
     atom    1 type  1   force =    -0.00000000    0.00000000    0.00000000
     atom    2 type  1   force =    -0.00000000    0.00000000    0.00000000

     Total force =     0.000000     Total SCF correction =     0.000000


     Computing stress (Cartesian axis) and pressure

          total   stress  (Ry/bohr**3)                   (kbar)     P=      -43.96
  -0.00025957  -0.00000000   0.00000000          -38.18       -0.00        0.00
  -0.00000000  -0.00025957   0.00000000           -0.00      -38.18        0.00
  -0.00000000  -0.00000000  -0.00037733           -0.00       -0.00      -55.51

     Energy error            =      3.5E-03 Ry
     Gradient error          =      1.9E-27 Ry/Bohr
     Cell gradient error     =      5.6E+01 kbar

     number of scf cycles    =   2
     number of bfgs steps    =   1

     enthalpy           old  =    -306.8724772903 Ry
     enthalpy           new  =    -306.8759317022 Ry

     CASE: enthalpy          _new < enthalpy          _old

     new trust radius        =       0.0648391398 bohr
     new conv_thr            =            1.0E-10 Ry

     new unit-cell volume =    314.00089 a.u.^3 (    46.53013 Ang^3 )
     density =      3.18303 g/cm^3

CELL_PARAMETERS (alat=  6.25310370)
   0.979070108  -0.000000000  -0.000000000
  -0.489535054   0.847899586  -0.000000000
  -0.000000000   0.000000000   1.546983825

ATOMIC_POSITIONS (crystal)
Sc           -0.0000000000       -0.0000000000        0.0000000000
Sc            0.6666666667        0.3333333333        0.5000000000



     Writing config-only to output data dir sc_vcrelax.out/scandium.save/
     NEW-OLD atomic charge density approx. for the potential

     Check: negative core charge=   -0.000011
     extrapolated charge   21.03992, renormalised to   22.00000

     total cpu time spent up to now is       76.7 secs

     Self-consistent Calculation

     iteration #  1     ecut=    70.00 Ry     beta= 0.70
     Davidson diagonalization with overlap
     c_bands:  1 eigenvalues not converged
     c_bands:  2 eigenvalues not converged
     c_bands:  2 eigenvalues not converged
     c_bands:  2 eigenvalues not converged
     c_bands:  2 eigenvalues not converged
     c_bands:  3 eigenvalues not converged
     c_bands:  4 eigenvalues not converged
     c_bands:  2 eigenvalues not converged
     c_bands:  2 eigenvalues not converged
     c_bands:  3 eigenvalues not converged
     c_bands:  4 eigenvalues not converged
     c_bands:  3 eigenvalues not converged
     ethr =  1.00E-06,  avg # of iterations = 22.5

     total cpu time spent up to now is       82.8 secs

     total energy              =    -306.61539885 Ry
     estimated scf accuracy    <       0.19211299 Ry

     iteration #  2     ecut=    70.00 Ry     beta= 0.70
     Davidson diagonalization with overlap
     ethr =  8.73E-04,  avg # of iterations =  7.1

     total cpu time spent up to now is       84.7 secs

     total energy              =    -306.88647256 Ry
     estimated scf accuracy    <       0.30551700 Ry

     iteration #  3     ecut=    70.00 Ry     beta= 0.70
     Davidson diagonalization with overlap
     ethr =  8.73E-04,  avg # of iterations =  1.1

     total cpu time spent up to now is       85.6 secs

     total energy              =    -306.87500416 Ry
     estimated scf accuracy    <       0.09130434 Ry

     iteration #  4     ecut=    70.00 Ry     beta= 0.70
     Davidson diagonalization with overlap
     ethr =  4.15E-04,  avg # of iterations =  2.4

     total cpu time spent up to now is       86.5 secs

     total energy              =    -306.87275596 Ry
     estimated scf accuracy    <       0.04008368 Ry

     iteration #  5     ecut=    70.00 Ry     beta= 0.70
     Davidson diagonalization with overlap
     ethr =  1.82E-04,  avg # of iterations =  2.5

     total cpu time spent up to now is       87.5 secs

     total energy              =    -306.87610703 Ry
     estimated scf accuracy    <       0.01908096 Ry

     iteration #  6     ecut=    70.00 Ry     beta= 0.70
     Davidson diagonalization with overlap
     ethr =  8.67E-05,  avg # of iterations =  4.3

     total cpu time spent up to now is       88.7 secs

     total energy              =    -306.88449369 Ry
     estimated scf accuracy    <       0.01233079 Ry

     iteration #  7     ecut=    70.00 Ry     beta= 0.70
     Davidson diagonalization with overlap
     ethr =  5.60E-05,  avg # of iterations =  2.2

     total cpu time spent up to now is       89.7 secs

     total energy              =    -306.89416621 Ry
     estimated scf accuracy    <       0.01921838 Ry

     iteration #  8     ecut=    70.00 Ry     beta= 0.70
     Davidson diagonalization with overlap
     ethr =  5.60E-05,  avg # of iterations =  1.8

     total cpu time spent up to now is       90.6 secs

     total energy              =    -306.88236050 Ry
     estimated scf accuracy    <       0.03525333 Ry

     iteration #  9     ecut=    70.00 Ry     beta= 0.70
     Davidson diagonalization with overlap
     ethr =  5.60E-05,  avg # of iterations =  1.5

     total cpu time spent up to now is       91.5 secs

     total energy              =    -306.87750956 Ry
     estimated scf accuracy    <       0.01555964 Ry

     iteration # 10     ecut=    70.00 Ry     beta= 0.70
     Davidson diagonalization with overlap
     ethr =  5.60E-05,  avg # of iterations =  2.4

     total cpu time spent up to now is       92.4 secs

     total energy              =    -306.88038200 Ry
     estimated scf accuracy    <       0.00492866 Ry

     iteration # 11     ecut=    70.00 Ry     beta= 0.70
     Davidson diagonalization with overlap
     ethr =  2.24E-05,  avg # of iterations = 12.9

     total cpu time spent up to now is       95.5 secs

     total energy              =    -306.90947777 Ry
     estimated scf accuracy    <       0.08727838 Ry

     iteration # 12     ecut=    70.00 Ry     beta= 0.70
     Davidson diagonalization with overlap
     ethr =  2.24E-05,  avg # of iterations =  1.3

     total cpu time spent up to now is       96.4 secs

     total energy              =    -306.90886764 Ry
     estimated scf accuracy    <       0.08051783 Ry

     iteration # 13     ecut=    70.00 Ry     beta= 0.70
     Davidson diagonalization with overlap
     ethr =  2.24E-05,  avg # of iterations =  1.0

     total cpu time spent up to now is       97.3 secs

     total energy              =    -306.88754061 Ry
     estimated scf accuracy    <       0.07912469 Ry

     iteration # 14     ecut=    70.00 Ry     beta= 0.70
     Davidson diagonalization with overlap
     ethr =  2.24E-05,  avg # of iterations =  5.2

     total cpu time spent up to now is       98.7 secs

     total energy              =    -306.90012987 Ry
     estimated scf accuracy    <       0.03253257 Ry

     iteration # 15     ecut=    70.00 Ry     beta= 0.70
     Davidson diagonalization with overlap
     ethr =  2.24E-05,  avg # of iterations =  1.7

     total cpu time spent up to now is       99.6 secs

     total energy              =    -306.87208594 Ry
     estimated scf accuracy    <       0.05117548 Ry

     iteration # 16     ecut=    70.00 Ry     beta= 0.70
     Davidson diagonalization with overlap
     ethr =  2.24E-05,  avg # of iterations =  7.4

     total cpu time spent up to now is      101.5 secs

     total energy              =    -306.87925625 Ry
     estimated scf accuracy    <       0.00222073 Ry

     iteration # 17     ecut=    70.00 Ry     beta= 0.70
     Davidson diagonalization with overlap
     ethr =  1.01E-05,  avg # of iterations =  2.6

     total cpu time spent up to now is      102.5 secs

     total energy              =    -306.87993783 Ry
     estimated scf accuracy    <       0.00204961 Ry

     iteration # 18     ecut=    70.00 Ry     beta= 0.70
     Davidson diagonalization with overlap
     ethr =  9.32E-06,  avg # of iterations =  1.2

     total cpu time spent up to now is      103.4 secs

     total energy              =    -306.87854310 Ry
     estimated scf accuracy    <       0.00283754 Ry

     iteration # 19     ecut=    70.00 Ry     beta= 0.70
     Davidson diagonalization with overlap
     ethr =  9.32E-06,  avg # of iterations =  1.9

     total cpu time spent up to now is      104.4 secs

     total energy              =    -306.87847169 Ry
     estimated scf accuracy    <       0.00055149 Ry

     iteration # 20     ecut=    70.00 Ry     beta= 0.70
     Davidson diagonalization with overlap
     ethr =  2.51E-06,  avg # of iterations =  9.0

     total cpu time spent up to now is      106.4 secs

     total energy              =    -306.87911233 Ry
     estimated scf accuracy    <       0.00009017 Ry

     iteration # 21     ecut=    70.00 Ry     beta= 0.70
     Davidson diagonalization with overlap
     ethr =  4.10E-07,  avg # of iterations =  5.2

     total cpu time spent up to now is      107.7 secs

     total energy              =    -306.87912298 Ry
     estimated scf accuracy    <       0.00007399 Ry

     iteration # 22     ecut=    70.00 Ry     beta= 0.70
     Davidson diagonalization with overlap
     ethr =  3.36E-07,  avg # of iterations =  1.4

     total cpu time spent up to now is      108.6 secs

     total energy              =    -306.87910194 Ry
     estimated scf accuracy    <       0.00003473 Ry

     iteration # 23     ecut=    70.00 Ry     beta= 0.70
     Davidson diagonalization with overlap
     ethr =  1.58E-07,  avg # of iterations =  6.4

[...]

          k = 0.0000 0.3950 0.1659 (  3006 PWs)   bands (ev):

   -38.5443 -38.4981 -17.7052 -17.5851 -17.4773 -17.4019 -17.2983 -17.2908
     7.3402   8.9605   9.7281  10.2874  11.3495  11.7637  11.8523

          k = 0.0000 0.3950 0.2488 (  3002 PWs)   bands (ev):

   -38.5337 -38.5087 -17.7048 -17.6362 -17.4082 -17.3783 -17.3222 -17.3089
     7.6631   8.5330   9.9926  10.3643  11.2415  11.5475  12.1255

          k = 0.0000 0.3950-0.3318 (  2984 PWs)   bands (ev):

   -38.5212 -38.5212 -17.6799 -17.6799 -17.3503 -17.3503 -17.3490 -17.3490
     8.0762   8.0762  10.2586  10.2586  11.3149  11.3149  12.4777

          k = 0.0000 0.4937-0.0000 (  3018 PWs)   bands (ev):

   -38.5353 -38.4889 -17.6770 -17.5878 -17.5682 -17.4431 -17.3362 -17.2869
     7.9198   9.1076   9.3505   9.9071  11.4612  11.5523  11.9931

          k = 0.0000 0.4937 0.0829 (  3015 PWs)   bands (ev):

   -38.5335 -38.4907 -17.7062 -17.5958 -17.5396 -17.4373 -17.3271 -17.2929
     7.9410   9.0509   9.4412   9.9339  11.5354  11.5595  11.9344

          k = 0.0000 0.4937 0.1659 (  3009 PWs)   bands (ev):

   -38.5285 -38.4957 -17.7395 -17.6448 -17.4681 -17.4205 -17.3146 -17.3100
     8.0155   8.8859   9.6564  10.0526  11.5367  11.7543  11.7846

          k = 0.0000 0.4937 0.2488 (  2989 PWs)   bands (ev):

   -38.5209 -38.5032 -17.7503 -17.6967 -17.3997 -17.3954 -17.3356 -17.3188
     8.1607   8.6378   9.9352  10.2055  11.4441  11.6116  12.1059

          k = 0.0000 0.4937-0.3318 (  2998 PWs)   bands (ev):

   -38.5121 -38.5121 -17.7349 -17.7349 -17.3656 -17.3656 -17.3475 -17.3475
     8.3769   8.3769  10.1761  10.1761  11.4551  11.4551  12.5679

          k =-0.0000-0.5925 0.0000 (  3006 PWs)   bands (ev):

   -38.5273 -38.4903 -17.7019 -17.5901 -17.5588 -17.4504 -17.3585 -17.2907
     8.4127   8.8865   9.2679   9.8062  11.4053  11.5033  12.1121

          k =-0.0000-0.5925 0.0829 (  3018 PWs)   bands (ev):

   -38.5259 -38.4917 -17.7248 -17.6141 -17.5237 -17.4444 -17.3460 -17.2968
     8.3629   8.8792   9.4258   9.7810  11.4837  11.5734  12.0194

          k =-0.0000-0.5925 0.1659 (  2994 PWs)   bands (ev):

   -38.5218 -38.4957 -17.7564 -17.6660 -17.4573 -17.4273 -17.3268 -17.3144
     8.3090   8.8073   9.7736   9.8065  11.6945  11.7159  11.7873

          k =-0.0000-0.5925 0.2488 (  2992 PWs)   bands (ev):

   -38.5158 -38.5016 -17.7688 -17.7185 -17.4016 -17.3933 -17.3405 -17.3240
     8.3379   8.6412   9.9728  10.1001  11.5619  11.6977  12.0899

          k =-0.0000-0.5925-0.3318 (  2988 PWs)   bands (ev):

   -38.5087 -38.5087 -17.7555 -17.7555 -17.3711 -17.3711 -17.3463 -17.3463
     8.4599   8.4599  10.1575  10.1575  11.5622  11.5622  12.5855

          k = 0.0855 0.1481-0.0000 (  2982 PWs)   bands (ev):

   -38.6003 -38.4969 -17.7819 -17.3988 -17.3683 -17.3036 -17.2513 -17.2163
     5.3143   8.6857  10.5517  11.0692  11.9459  12.0960  12.1141

          k = 0.0855 0.1481 0.0829 (  2980 PWs)   bands (ev):

   -38.5964 -38.5009 -17.7638 -17.3928 -17.3659 -17.3174 -17.2555 -17.2263
     5.4246   8.5857  10.4475  11.0809  11.9240  11.9529  11.9863

          k = 0.0855 0.1481 0.1659 (  2977 PWs)   bands (ev):

   -38.5853 -38.5122 -17.7121 -17.3798 -17.3754 -17.3398 -17.2675 -17.2509
     5.7473   8.2214  10.3604  11.1201  11.6532  11.7966  11.9215

          k = 0.0855 0.1481 0.2488 (  2987 PWs)   bands (ev):

   -38.5686 -38.5291 -17.6343 -17.4505 -17.3493 -17.3284 -17.2851 -17.2818
     6.2561   7.6049  10.4963  11.1018  11.4068  11.6968  11.8128

          k = 0.0855 0.1481-0.3318 (  2994 PWs)   bands (ev):

   -38.5489 -38.5489 -17.5420 -17.5420 -17.3205 -17.3205 -17.3030 -17.3030
     6.9029   6.9029  10.7974  10.7974  11.5051  11.5053  11.8686

          k = 0.0855 0.2469-0.0000 (  2992 PWs)   bands (ev):

   -38.5833 -38.4927 -17.7357 -17.4710 -17.4223 -17.3553 -17.2668 -17.2409
     5.9151   9.0807  10.1355  10.5961  11.7256  11.8008  12.1370

          k = 0.0855 0.2469 0.0829 (  2989 PWs)   bands (ev):

   -38.5798 -38.4962 -17.7252 -17.4614 -17.4262 -17.3639 -17.2718 -17.2444
     6.0158   9.0002  10.0467  10.6267  11.6920  11.8120  12.0321

          k = 0.0855 0.2469 0.1659 (  2987 PWs)   bands (ev):

   -38.5701 -38.5060 -17.6946 -17.4640 -17.4241 -17.3680 -17.2858 -17.2588
     6.3106   8.6435  10.0283  10.7097  11.4907  11.7914  11.9505

          k = 0.0855 0.2469 0.2488 (  2993 PWs)   bands (ev):

   -38.5555 -38.5208 -17.6461 -17.5193 -17.3846 -17.3548 -17.3058 -17.2870
     6.7772   8.0373  10.2342  10.7615  11.2740  11.5836  12.0177

          k = 0.0855 0.2469-0.3318 (  2996 PWs)   bands (ev):

   -38.5382 -38.5382 -17.5849 -17.5849 -17.3473 -17.3473 -17.3171 -17.3171
     7.3751   7.3751  10.5474  10.5474  11.3475  11.3475  12.1460

          k = 0.0855 0.3456-0.0000 (  2997 PWs)   bands (ev):

   -38.5621 -38.4892 -17.6748 -17.5617 -17.4871 -17.4042 -17.2833 -17.2768
     6.7232   9.3684   9.7478  10.1910  11.5475  11.6565  11.8985

          k = 0.0855 0.3456 0.0829 (  2997 PWs)   bands (ev):

   -38.5594 -38.4920 -17.6837 -17.5422 -17.4928 -17.4061 -17.2908 -17.2725
     6.8061   9.3182   9.6992  10.2375  11.4619  11.7345  11.8603

          k = 0.0855 0.3456 0.1659 (  2993 PWs)   bands (ev):

   -38.5515 -38.4999 -17.6906 -17.5524 -17.4651 -17.3992 -17.3073 -17.2743
     7.0486   8.9887   9.8002  10.3467  11.3101  11.7092  11.8971

          k = 0.0855 0.3456 0.2488 (  3000 PWs)   bands (ev):

   -38.5397 -38.5118 -17.6790 -17.6004 -17.4101 -17.3778 -17.3292 -17.2930
     7.4320   8.4703  10.0567  10.4405  11.1655  11.4656  12.1158

          k = 0.0855 0.3456-0.3318 (  3000 PWs)   bands (ev):

   -38.5257 -38.5257 -17.6470 -17.6470 -17.3716 -17.3716 -17.3262 -17.3262
     7.9232   7.9232  10.3330  10.3330  11.2208  11.2208  12.3899

          k = 0.0855 0.4443-0.0000 (  3004 PWs)   bands (ev):

   -38.5415 -38.4884 -17.6422 -17.6095 -17.5451 -17.4409 -17.3203 -17.2975
     7.6080   9.2995   9.4606   9.9486  11.3951  11.6641  11.8686

          k = 0.0855 0.4443 0.0829 (  3010 PWs)   bands (ev):

   -38.5395 -38.4904 -17.6820 -17.5839 -17.5363 -17.4375 -17.3175 -17.2981
     7.6578   9.2381   9.5012  10.0091  11.3852  11.6361  11.8744

          k = 0.0855 0.4443 0.1659 (  3004 PWs)   bands (ev):

   -38.5338 -38.4962 -17.7154 -17.6202 -17.4772 -17.4193 -17.3289 -17.2935
     7.8054   9.0151   9.6831  10.1523  11.3007  11.5912  11.9226

          k = 0.0855 0.4443 0.2488 (  2992 PWs)   bands (ev):

   -38.5251 -38.5048 -17.7240 -17.6690 -17.4271 -17.3834 -17.3497 -17.3005
     8.0426   8.6942   9.9623  10.2814  11.1957  11.4002  12.1660

          k = 0.0855 0.4443-0.3318 (  2994 PWs)   bands (ev):

   -38.5150 -38.5150 -17.7071 -17.7071 -17.3917 -17.3917 -17.3280 -17.3280
     8.3509   8.3509  10.2229  10.2229  11.2134  11.2134  12.5371

          k = 0.0855 0.5431-0.0000 (  3005 PWs)   bands (ev):

   -38.5274 -38.4902 -17.6888 -17.5791 -17.5593 -17.4605 -17.3579 -17.3058
     8.3489   9.0518   9.3093   9.7891  11.3497  11.4987  12.0992

          k = 0.0855 0.5431 0.0829 (  3010 PWs)   bands (ev):

   -38.5259 -38.4916 -17.7115 -17.6045 -17.5267 -17.4512 -17.3481 -17.3088
     8.3330   9.0208   9.4390   9.7992  11.3848  11.5188  12.0518

          k = 0.0855 0.5431 0.1659 (  3006 PWs)   bands (ev):

   -38.5219 -38.4956 -17.7430 -17.6558 -17.4774 -17.4186 -17.3470 -17.3076
     8.3305   8.9198   9.6995   9.9243  11.3966  11.5325  12.0282

          k = 0.0855 0.5431 0.2488 (  2990 PWs)   bands (ev):

   -38.5158 -38.5016 -17.7557 -17.7072 -17.4384 -17.3756 -17.3636 -17.3072
     8.3967   8.7373   9.9707  10.1682  11.2715  11.4441  12.2473

          k = 0.0855 0.5431-0.3318 (  2996 PWs)   bands (ev):

   -38.5087 -38.5087 -17.7432 -17.7432 -17.4033 -17.4033 -17.3270 -17.3270
     8.5418   8.5418  10.2011  10.2011  11.2763  11.2763  12.6465

          k = 0.1710 0.2962-0.0000 (  2996 PWs)   bands (ev):

   -38.5651 -38.4895 -17.6837 -17.5184 -17.5094 -17.3828 -17.2967 -17.2713
     6.6067   9.4237   9.8246  10.1801  11.4805  11.6310  12.0016

          k = 0.1710 0.2962 0.0829 (  2993 PWs)   bands (ev):

   -38.5622 -38.4924 -17.6863 -17.5152 -17.4981 -17.3939 -17.3019 -17.2674
     6.6941   9.3775   9.7536  10.2199  11.4467  11.6856  11.9231

          k = 0.1710 0.2962 0.1659 (  2989 PWs)   bands (ev):

   -38.5541 -38.5006 -17.6844 -17.5401 -17.4501 -17.4048 -17.3158 -17.2684
     6.9501   9.0205   9.8381  10.3312  11.3228  11.6694  11.8855

          k = 0.1710 0.2962 0.2488 (  3004 PWs)   bands (ev):

   -38.5419 -38.5129 -17.6667 -17.5846 -17.3980 -17.3972 -17.3317 -17.2863
     7.3553   8.4599  10.0922  10.4525  11.1439  11.4081  12.0870

          k = 0.1710 0.2962-0.3318 (  3000 PWs)   bands (ev):

   -38.5274 -38.5274 -17.6314 -17.6314 -17.3821 -17.3821 -17.3189 -17.3189
     7.8761   7.8761  10.3697  10.3697  11.1617  11.1617  12.3360

          k = 0.1710 0.3950-0.0000 (  2999 PWs)   bands (ev):

   -38.5450 -38.4882 -17.6213 -17.5955 -17.5495 -17.4280 -17.3248 -17.3119
     7.4498   9.5529   9.5676   9.8709  11.2712  11.7557  11.7676

          k = 0.1710 0.3950 0.0829 (  2998 PWs)   bands (ev):

   -38.5429 -38.4904 -17.6572 -17.5847 -17.5190 -17.4388 -17.3321 -17.2991
     7.5155   9.4598   9.6179   9.9300  11.2533  11.6742  11.7869

          k = 0.1710 0.3950 0.1659 (  3007 PWs)   bands (ev):

   -38.5367 -38.4966 -17.6879 -17.6067 -17.4665 -17.4374 -17.3468 -17.2852
     7.7073   9.1875   9.7921  10.0675  11.1761  11.4766  11.8720

          k = 0.1710 0.3950 0.2488 (  3003 PWs)   bands (ev):

   -38.5275 -38.5058 -17.6955 -17.6452 -17.4438 -17.4063 -17.3497 -17.2895
     8.0087   8.8058  10.0419  10.2280  11.0412  11.2032  12.0909

          k = 0.1710 0.3950-0.3318 (  2998 PWs)   bands (ev):

   -38.5166 -38.5166 -17.6793 -17.6793 -17.4199 -17.4199 -17.3156 -17.3156
     8.3904   8.3904  10.2531  10.2531  11.0005  11.0005  12.4246

          k = 0.1710 0.4937-0.0000 (  3009 PWs)   bands (ev):

   -38.5275 -38.4900 -17.6544 -17.5645 -17.5604 -17.4742 -17.3568 -17.3435
     8.2785   9.3618   9.4012   9.7364  11.2013  11.5204  12.0499

          k = 0.1710 0.4937 0.0829 (  3005 PWs)   bands (ev):

   -38.5261 -38.4915 -17.6757 -17.5984 -17.5218 -17.4674 -17.3604 -17.3294
     8.3063   9.2996   9.4783   9.8167  11.1944  11.4434  12.0456

          k = 0.1710 0.4937 0.1659 (  3007 PWs)   bands (ev):

   -38.5220 -38.4955 -17.7082 -17.6394 -17.5037 -17.4226 -17.3732 -17.3048
     8.3930   9.1591   9.6755  10.0162  11.1306  11.2490  12.0842

          k = 0.1710 0.4937 0.2488 (  3002 PWs)   bands (ev):

   -38.5159 -38.5016 -17.7235 -17.6836 -17.4799 -17.4182 -17.3491 -17.2959
     8.5410   8.9605   9.9679  10.2439  10.9578  11.0145  12.2513

          k = 0.1710 0.4937-0.3318 (  2996 PWs)   bands (ev):

   -38.5087 -38.5087 -17.7147 -17.7147 -17.4485 -17.4485 -17.3115 -17.3115
     8.7401   8.7401  10.2552  10.2552  10.8579  10.8579  12.5586

          k = 0.1710 0.5925-0.0000 (  3010 PWs)   bands (ev):

   -38.5195 -38.4923 -17.6756 -17.5659 -17.5293 -17.4957 -17.3821 -17.3500
     8.7515   9.1752   9.3437   9.6512  11.2256  11.3817  12.1984

          k = 0.1710 0.5925 0.0829 (  3002 PWs)   bands (ev):

   -38.5184 -38.4933 -17.6921 -17.5925 -17.5336 -17.4591 -17.3796 -17.3409
     8.7169   9.1771   9.4797   9.6708  11.2067  11.3418  12.1855

          k = 0.1710 0.5925 0.1659 (  2996 PWs)   bands (ev):

   -38.5155 -38.4963 -17.7206 -17.6458 -17.5208 -17.3989 -17.3951 -17.3147
     8.6907   9.1290   9.7873   9.7945  11.0994  11.2233  12.2129

          k = 0.1710 0.5925 0.2488 (  3001 PWs)   bands (ev):

   -38.5110 -38.5006 -17.7358 -17.6957 -17.4935 -17.4243 -17.3448 -17.3001
     8.7353   9.0002  10.0360  10.1643  10.8664  11.0189  12.3748

          k = 0.1710 0.5925-0.3318 (  2994 PWs)   bands (ev):

   -38.5058 -38.5058 -17.7277 -17.7277 -17.4592 -17.4592 -17.3098 -17.3098
     8.8496   8.8496  10.3057  10.3057  10.7715  10.7715  12.6714

          k = 0.2565 0.4443-0.0000 (  3004 PWs)   bands (ev):

   -38.5276 -38.4900 -17.6252 -17.5751 -17.5610 -17.4667 -17.3706 -17.3563
     8.2560   9.4528   9.5903   9.6359  11.1189  11.5349  12.0092

          k = 0.2565 0.4443 0.0829 (  2999 PWs)   bands (ev):

   -38.5261 -38.4914 -17.6323 -17.6280 -17.4962 -17.4875 -17.3756 -17.3346
     8.3021   9.3910   9.6347   9.7374  11.1125  11.4106  12.0074

          k = 0.2565 0.4443 0.1659 (  3011 PWs)   bands (ev):

   -38.5221 -38.4955 -17.6782 -17.6440 -17.5073 -17.4395 -17.3795 -17.3044
     8.4341   9.2720   9.7682   9.9453  11.0610  11.1251  12.0296

          k = 0.2565 0.4443 0.2488 (  3007 PWs)   bands (ev):

   -38.5160 -38.5015 -17.7004 -17.6739 -17.4979 -17.4430 -17.3436 -17.2927
     8.6334   9.0955   9.9824  10.1789  10.8172  10.9165  12.1626

          k = 0.2565 0.4443-0.3318 (  3000 PWs)   bands (ev):

   -38.5087 -38.5087 -17.6974 -17.6974 -17.4714 -17.4714 -17.3066 -17.3066
     8.8686   8.8686  10.2125  10.2125  10.7324  10.7324  12.4610

          k = 0.2565 0.5431-0.0000 (  2998 PWs)   bands (ev):

   -38.5139 -38.4946 -17.6480 -17.5575 -17.5138 -17.5065 -17.4014 -17.3989
     8.9264   9.4001   9.4240   9.5518  11.1103  11.3104  12.2633

          k = 0.2565 0.5431 0.0829 (  3006 PWs)   bands (ev):

   -38.5132 -38.4953 -17.6534 -17.5957 -17.5439 -17.4550 -17.4092 -17.3683
     8.9471   9.3782   9.4827   9.6414  11.0769  11.2016  12.2534

          k = 0.2565 0.5431 0.1659 (  2998 PWs)   bands (ev):

   -38.5110 -38.4974 -17.6781 -17.6388 -17.5607 -17.4398 -17.3804 -17.3257
     9.0087   9.3492   9.6440   9.8592  10.9275  10.9642  12.2580

          k = 0.2565 0.5431 0.2488 (  2993 PWs)   bands (ev):

   -38.5079 -38.5005 -17.7011 -17.6790 -17.5410 -17.4701 -17.3300 -17.3003
     9.1035   9.2968   9.9022  10.1497  10.5847  10.7522  12.3517

          k = 0.2565 0.5431-0.3318 (  2996 PWs)   bands (ev):

   -38.5042 -38.5042 -17.7022 -17.7022 -17.5068 -17.5068 -17.3014 -17.3014
     9.2095   9.2095  10.2266  10.2266  10.4671  10.4671  12.5937

          k = 0.3421 0.5925-0.0000 (  3006 PWs)   bands (ev):

   -38.5026 -38.5026 -17.6398 -17.5396 -17.5396 -17.4523 -17.4523 -17.4295
     9.3458   9.3458   9.4097   9.4484  11.1492  11.1492  12.3734

          k = 0.3421 0.5925 0.0829 (  2994 PWs)   bands (ev):

   -38.5026 -38.5026 -17.6319 -17.5807 -17.5807 -17.4376 -17.4105 -17.4105
     9.3970   9.3970   9.4405   9.4696  11.0657  11.0657  12.3613

          k = 0.3421 0.5925 0.1659 (  3000 PWs)   bands (ev):

   -38.5025 -38.5025 -17.6368 -17.6368 -17.6095 -17.4608 -17.3530 -17.3530
     9.5159   9.5245   9.5414   9.5414  10.8505  10.8505  12.3523

          k = 0.3421 0.5925 0.2488 (  2982 PWs)   bands (ev):

   -38.5025 -38.5025 -17.6759 -17.6759 -17.5758 -17.4953 -17.3124 -17.3124
     9.5872   9.5915   9.7438   9.7438  10.5868  10.5868  12.4175

          k = 0.3421 0.5925-0.3318 (  2982 PWs)   bands (ev):

   -38.5025 -38.5025 -17.6898 -17.6898 -17.5357 -17.5357 -17.2980 -17.2980
     9.6191   9.6191   9.8747   9.8747  10.4326  10.4326  12.6294

     the Fermi energy is    10.0661 ev

!    total energy              =    -306.87958526 Ry
     total all-electron energy =     -3050.020356 Ry
     estimated scf accuracy    <          1.9E-11 Ry
     smearing contrib. (-TS)   =      -0.00078195 Ry
     internal energy E=F+TS    =    -306.87880330 Ry

     The total energy is F=E-TS. E is the sum of the following terms:
     one-electron contribution =     -67.48735007 Ry
     hartree contribution      =      40.08926591 Ry
     xc contribution           =     -34.67332802 Ry
     ewald contribution        =    -131.05086919 Ry
     one-center paw contrib.   =    -113.75652193 Ry

     convergence has been achieved in  20 iterations

     Forces acting on atoms (cartesian axes, Ry/au):

     atom    1 type  1   force =     0.00000000    0.00000000   -0.00000000
     atom    2 type  1   force =    -0.00000000   -0.00000000    0.00000000
     The non-local contrib.  to forces
     atom    1 type  1   force =     0.00000000    0.00000000   -0.00000000
     atom    2 type  1   force =    -0.00000000   -0.00000000   -0.00000000
     The ionic contribution  to forces
     atom    1 type  1   force =     0.00000000   -0.00000000   -0.00000000
     atom    2 type  1   force =    -0.00000000    0.00000000    0.00000000
     The local contribution  to forces
     atom    1 type  1   force =     0.00000000    0.00000000    0.00000000
     atom    2 type  1   force =    -0.00000000    0.00000000    0.00000000
     The core correction contribution to forces
     atom    1 type  1   force =     0.00000000    0.00000000    0.00000000
     atom    2 type  1   force =     0.00000000   -0.00000000   -0.00000000
     The Hubbard contrib.    to forces
     atom    1 type  1   force =     0.00000000    0.00000000    0.00000000
     atom    2 type  1   force =     0.00000000    0.00000000    0.00000000
     The SCF correction term to forces
     atom    1 type  1   force =     0.00000000    0.00000000    0.00000000
     atom    2 type  1   force =    -0.00000000   -0.00000000   -0.00000000

     Total force =     0.000000     Total SCF correction =     0.000000


     Computing stress (Cartesian axis) and pressure

          total   stress  (Ry/bohr**3)                   (kbar)     P=       -2.10
  -0.00001306  -0.00000000  -0.00000000           -1.92       -0.00       -0.00
  -0.00000000  -0.00001306  -0.00000000           -0.00       -1.92       -0.00
  -0.00000000  -0.00000000  -0.00001666           -0.00       -0.00       -2.45


     Writing all to output data dir sc_vcrelax.out/scandium.save/

     init_run     :      3.14s CPU      3.19s WALL (       2 calls)
     electrons    :    315.48s CPU    324.21s WALL (       9 calls)
     update_pot   :      6.90s CPU      6.92s WALL (       7 calls)
     forces       :      5.39s CPU      5.40s WALL (       9 calls)
     stress       :     16.32s CPU     16.50s WALL (       9 calls)

     Called by init_run:
     wfcinit      :      0.77s CPU      0.81s WALL (       2 calls)
     potinit      :      0.54s CPU      0.55s WALL (       2 calls)
     hinit0       :      1.70s CPU      1.70s WALL (       2 calls)

     Called by electrons:
     c_bands      :    275.66s CPU    283.49s WALL (     196 calls)
     sum_band     :     28.44s CPU     28.85s WALL (     196 calls)
     v_of_rho     :      1.14s CPU      1.15s WALL (     203 calls)
     newd         :      2.78s CPU      2.80s WALL (     203 calls)
     PAW_pot      :      6.47s CPU      6.49s WALL (     210 calls)
     mix_rho      :      0.64s CPU      0.65s WALL (     196 calls)

     Called by c_bands:
     init_us_2    :      4.32s CPU      4.44s WALL (    7961 calls)
     init_us_2:cp :      4.28s CPU      4.42s WALL (    7961 calls)
     cegterg      :    211.58s CPU    214.25s WALL (    3748 calls)

     Called by *egterg:
     cdiaghg      :      7.04s CPU      7.16s WALL (   23851 calls)
     h_psi        :    155.76s CPU    158.05s WALL (   24073 calls)
     s_psi        :     10.25s CPU     10.34s WALL (   24073 calls)
     g_psi        :      0.98s CPU      0.99s WALL (   20287 calls)

     Called by h_psi:
     h_psi:calbec :     11.04s CPU     11.17s WALL (   24073 calls)
     vloc_psi     :    133.29s CPU    135.36s WALL (   24073 calls)
     add_vuspsi   :     10.32s CPU     10.41s WALL (   24073 calls)

     General routines
     calbec       :     14.60s CPU     14.79s WALL (   28785 calls)
     fft          :      1.39s CPU      1.41s WALL (    1281 calls)
     ffts         :      0.25s CPU      0.25s WALL (     399 calls)
     fftw         :    134.98s CPU    137.05s WALL (  449296 calls)
     interpolate  :      0.43s CPU      0.44s WALL (     203 calls)

     Parallel routines

     PWSCF        :   5m48.13s CPU   5m57.96s WALL


   This run was terminated on:  18:37:29  23Jul2023            

=------------------------------------------------------------------------------=
   JOB DONE.
=------------------------------------------------------------------------------=
