
     Program PWSCF v.7.2 starts on 19Jun2023 at 19: 2:37 

     This program is part of the open-source Quantum ESPRESSO suite
     for quantum simulation of materials; please cite
         "P. Giannozzi et al., J. Phys.:Condens. Matter 21 395502 (2009);
         "P. Giannozzi et al., J. Phys.:Condens. Matter 29 465901 (2017);
         "P. Giannozzi et al., J. Chem. Phys. 152 154105 (2020);
          URL http://www.quantum-espresso.org", 
     in publications or presentations arising from this work. More details at
     http://www.quantum-espresso.org/quote

     Parallel version (MPI), running on     4 processors

     MPI processes distributed on     1 nodes
     317437 MiB available memory on the printing compute node when the environment starts

     Waiting for input...
     Reading input from standard input

     Current dimensions of program PWSCF are:
     Max number of different atomic species (ntypx) = 10
     Max number of k-points (npk) = 120000
     Max angular momentum in pseudopotentials (lmaxx) =  4
     file Sc.pz-spn-kjpaw_psl.1.0.0.UPF: wavefunction(s)  3S 3P 3D renormalized

     R & G space division:  proc/nbgrp/npool/nimage =       4
     Subspace diagonalization in iterative solution of the eigenvalue problem:
     a serial algorithm will be used


     Parallelization info
     --------------------
     sticks:   dense  smooth     PW     G-vecs:    dense   smooth      PW
     Min         321     321     91                14973    14973    2265
     Max         322     322     92                14980    14980    2268
     Sum        1285    1285    367                59901    59901    9067

     Using Slab Decomposition



     bravais-lattice index     =            4
     lattice parameter (alat)  =       6.2531  a.u.
     unit-cell volume          =     337.5249 (a.u.)^3
     number of atoms/cell      =            2
     number of atomic types    =            1
     number of electrons       =        22.00
     number of Kohn-Sham states=           15
     kinetic-energy cutoff     =     120.0000  Ry
     charge density cutoff     =     480.0000  Ry
     scf convergence threshold =      1.0E-08
     mixing beta               =       0.7000
     number of iterations used =            8  plain     mixing
     energy convergence thresh.=      1.0E-04
     force convergence thresh. =      1.0E-03
     press convergence thresh. =      5.0E-01
     Exchange-correlation= SLA  PZ   NOGX NOGC
                           (   1   1   0   0   0   0   0)
     nstep                     =           50


     celldm(1)=   6.253104  celldm(2)=   0.000000  celldm(3)=   1.594000
     celldm(4)=   0.000000  celldm(5)=   0.000000  celldm(6)=   0.000000

     crystal axes: (cart. coord. in units of alat)
               a(1) = (   1.000000   0.000000   0.000000 )  
               a(2) = (  -0.500000   0.866025   0.000000 )  
               a(3) = (   0.000000   0.000000   1.594000 )  

     reciprocal axes: (cart. coord. in units 2 pi/alat)
               b(1) = (  1.000000  0.577350 -0.000000 )  
               b(2) = (  0.000000  1.154701  0.000000 )  
               b(3) = (  0.000000 -0.000000  0.627353 )  


     PseudoPot. # 1 for Sc read from file:
     ../../../Sc.pz-spn-kjpaw_psl.1.0.0.UPF
     MD5 check sum: 1f9095df0bb42a6568b4e9f256ff075f
     Pseudo is Projector augmented-wave + core cor, Zval = 11.0
     Generated using 'atomic' code by A. Dal Corso  v.7.1
     Shape of augmentation charge: PSQ
     Using radial grid of 1173 points,  6 beta functions with: 
                l(1) =   0
                l(2) =   0
                l(3) =   1
                l(4) =   1
                l(5) =   2
                l(6) =   2
     Q(r) pseudized with 0 coefficients 


     atomic species   valence    mass     pseudopotential
        Sc            11.00    44.59600     Sc( 1.00)

     24 Sym. Ops., with inversion, found (12 have fractional translation)



   Cartesian axes

     site n.     atom                  positions (alat units)
         1           Sc  tau(   1) = (   0.0000000   0.0000000   0.0000000  )
         2           Sc  tau(   2) = (   0.5000000   0.2886751   0.7970000  )

     number of k points=    95  Marzari-Vanderbilt smearing, width (Ry)=  0.0200
                       cart. coord. in units 2pi/alat
        k(    1) = (   0.0000000   0.0000000   0.0000000), wk =   0.0017361
        k(    2) = (   0.0000000   0.0000000   0.0784191), wk =   0.0034722
        k(    3) = (   0.0000000   0.0000000   0.1568381), wk =   0.0034722
        k(    4) = (   0.0000000   0.0000000   0.2352572), wk =   0.0034722
        k(    5) = (   0.0000000   0.0000000  -0.3136763), wk =   0.0017361
        k(    6) = (   0.0000000   0.0962250   0.0000000), wk =   0.0104167
        k(    7) = (   0.0000000   0.0962250   0.0784191), wk =   0.0208333
        k(    8) = (   0.0000000   0.0962250   0.1568381), wk =   0.0208333
        k(    9) = (   0.0000000   0.0962250   0.2352572), wk =   0.0208333
        k(   10) = (   0.0000000   0.0962250  -0.3136763), wk =   0.0104167
        k(   11) = (   0.0000000   0.1924501   0.0000000), wk =   0.0104167
        k(   12) = (   0.0000000   0.1924501   0.0784191), wk =   0.0208333
        k(   13) = (   0.0000000   0.1924501   0.1568381), wk =   0.0208333
        k(   14) = (   0.0000000   0.1924501   0.2352572), wk =   0.0208333
        k(   15) = (   0.0000000   0.1924501  -0.3136763), wk =   0.0104167
        k(   16) = (   0.0000000   0.2886751   0.0000000), wk =   0.0104167
        k(   17) = (   0.0000000   0.2886751   0.0784191), wk =   0.0208333
        k(   18) = (   0.0000000   0.2886751   0.1568381), wk =   0.0208333
        k(   19) = (   0.0000000   0.2886751   0.2352572), wk =   0.0208333
        k(   20) = (   0.0000000   0.2886751  -0.3136763), wk =   0.0104167
        k(   21) = (   0.0000000   0.3849002   0.0000000), wk =   0.0104167
        k(   22) = (   0.0000000   0.3849002   0.0784191), wk =   0.0208333
        k(   23) = (   0.0000000   0.3849002   0.1568381), wk =   0.0208333
        k(   24) = (   0.0000000   0.3849002   0.2352572), wk =   0.0208333
        k(   25) = (   0.0000000   0.3849002  -0.3136763), wk =   0.0104167
        k(   26) = (   0.0000000   0.4811252   0.0000000), wk =   0.0104167
        k(   27) = (   0.0000000   0.4811252   0.0784191), wk =   0.0208333
        k(   28) = (   0.0000000   0.4811252   0.1568381), wk =   0.0208333
        k(   29) = (   0.0000000   0.4811252   0.2352572), wk =   0.0208333
        k(   30) = (   0.0000000   0.4811252  -0.3136763), wk =   0.0104167
        k(   31) = (   0.0000000  -0.5773503   0.0000000), wk =   0.0052083
        k(   32) = (   0.0000000  -0.5773503   0.0784191), wk =   0.0104167
        k(   33) = (   0.0000000  -0.5773503   0.1568381), wk =   0.0104167
        k(   34) = (   0.0000000  -0.5773503   0.2352572), wk =   0.0104167
        k(   35) = (   0.0000000  -0.5773503  -0.3136763), wk =   0.0052083
        k(   36) = (   0.0833333   0.1443376   0.0000000), wk =   0.0104167
        k(   37) = (   0.0833333   0.1443376   0.0784191), wk =   0.0208333
        k(   38) = (   0.0833333   0.1443376   0.1568381), wk =   0.0208333
        k(   39) = (   0.0833333   0.1443376   0.2352572), wk =   0.0208333
        k(   40) = (   0.0833333   0.1443376  -0.3136763), wk =   0.0104167
        k(   41) = (   0.0833333   0.2405626   0.0000000), wk =   0.0208333
        k(   42) = (   0.0833333   0.2405626   0.0784191), wk =   0.0416667
        k(   43) = (   0.0833333   0.2405626   0.1568381), wk =   0.0416667
        k(   44) = (   0.0833333   0.2405626   0.2352572), wk =   0.0416667
        k(   45) = (   0.0833333   0.2405626  -0.3136763), wk =   0.0208333
        k(   46) = (   0.0833333   0.3367877   0.0000000), wk =   0.0208333
        k(   47) = (   0.0833333   0.3367877   0.0784191), wk =   0.0416667
        k(   48) = (   0.0833333   0.3367877   0.1568381), wk =   0.0416667
        k(   49) = (   0.0833333   0.3367877   0.2352572), wk =   0.0416667
        k(   50) = (   0.0833333   0.3367877  -0.3136763), wk =   0.0208333
        k(   51) = (   0.0833333   0.4330127   0.0000000), wk =   0.0208333
        k(   52) = (   0.0833333   0.4330127   0.0784191), wk =   0.0416667
        k(   53) = (   0.0833333   0.4330127   0.1568381), wk =   0.0416667
        k(   54) = (   0.0833333   0.4330127   0.2352572), wk =   0.0416667
        k(   55) = (   0.0833333   0.4330127  -0.3136763), wk =   0.0208333
        k(   56) = (   0.0833333   0.5292377   0.0000000), wk =   0.0208333
        k(   57) = (   0.0833333   0.5292377   0.0784191), wk =   0.0416667
        k(   58) = (   0.0833333   0.5292377   0.1568381), wk =   0.0416667
        k(   59) = (   0.0833333   0.5292377   0.2352572), wk =   0.0416667
        k(   60) = (   0.0833333   0.5292377  -0.3136763), wk =   0.0208333
        k(   61) = (   0.1666667   0.2886751   0.0000000), wk =   0.0104167
        k(   62) = (   0.1666667   0.2886751   0.0784191), wk =   0.0208333
        k(   63) = (   0.1666667   0.2886751   0.1568381), wk =   0.0208333
        k(   64) = (   0.1666667   0.2886751   0.2352572), wk =   0.0208333
        k(   65) = (   0.1666667   0.2886751  -0.3136763), wk =   0.0104167
        k(   66) = (   0.1666667   0.3849002   0.0000000), wk =   0.0208333
        k(   67) = (   0.1666667   0.3849002   0.0784191), wk =   0.0416667
        k(   68) = (   0.1666667   0.3849002   0.1568381), wk =   0.0416667
        k(   69) = (   0.1666667   0.3849002   0.2352572), wk =   0.0416667
        k(   70) = (   0.1666667   0.3849002  -0.3136763), wk =   0.0208333
        k(   71) = (   0.1666667   0.4811252   0.0000000), wk =   0.0208333
        k(   72) = (   0.1666667   0.4811252   0.0784191), wk =   0.0416667
        k(   73) = (   0.1666667   0.4811252   0.1568381), wk =   0.0416667
        k(   74) = (   0.1666667   0.4811252   0.2352572), wk =   0.0416667
        k(   75) = (   0.1666667   0.4811252  -0.3136763), wk =   0.0208333
        k(   76) = (   0.1666667   0.5773503   0.0000000), wk =   0.0104167
        k(   77) = (   0.1666667   0.5773503   0.0784191), wk =   0.0208333
        k(   78) = (   0.1666667   0.5773503   0.1568381), wk =   0.0208333
        k(   79) = (   0.1666667   0.5773503   0.2352572), wk =   0.0208333
        k(   80) = (   0.1666667   0.5773503  -0.3136763), wk =   0.0104167
        k(   81) = (   0.2500000   0.4330127   0.0000000), wk =   0.0104167
        k(   82) = (   0.2500000   0.4330127   0.0784191), wk =   0.0208333
        k(   83) = (   0.2500000   0.4330127   0.1568381), wk =   0.0208333
        k(   84) = (   0.2500000   0.4330127   0.2352572), wk =   0.0208333
        k(   85) = (   0.2500000   0.4330127  -0.3136763), wk =   0.0104167
        k(   86) = (   0.2500000   0.5292377   0.0000000), wk =   0.0208333
        k(   87) = (   0.2500000   0.5292377   0.0784191), wk =   0.0416667
        k(   88) = (   0.2500000   0.5292377   0.1568381), wk =   0.0416667
        k(   89) = (   0.2500000   0.5292377   0.2352572), wk =   0.0416667
        k(   90) = (   0.2500000   0.5292377  -0.3136763), wk =   0.0208333
        k(   91) = (   0.3333333   0.5773503   0.0000000), wk =   0.0034722
        k(   92) = (   0.3333333   0.5773503   0.0784191), wk =   0.0069444
        k(   93) = (   0.3333333   0.5773503   0.1568381), wk =   0.0069444
        k(   94) = (   0.3333333   0.5773503   0.2352572), wk =   0.0069444
        k(   95) = (   0.3333333   0.5773503  -0.3136763), wk =   0.0034722

     Dense  grid:    59901 G-vectors     FFT dimensions: (  45,  45,  72)

     Estimated max dynamical RAM per process >     100.36 MB

     Estimated total dynamical RAM >     401.43 MB

     Check: negative core charge=   -0.000004

     Initial potential from superposition of free atoms

     starting charge      21.9956, renormalised to      22.0000
     Starting wfcs are   20 randomized atomic wfcs
     Checking if some PAW data can be deallocated... 

     total cpu time spent up to now is        5.8 secs

     Self-consistent Calculation

     iteration #  1     ecut=   120.00 Ry     beta= 0.70
     Davidson diagonalization with overlap
     ethr =  1.00E-02,  avg # of iterations =  2.1

     Threshold (ethr) on eigenvalues was too large:
     Diagonalizing with lowered threshold

     Davidson diagonalization with overlap
     c_bands:  1 eigenvalues not converged
     c_bands:  2 eigenvalues not converged
     c_bands:  1 eigenvalues not converged
     c_bands:  1 eigenvalues not converged
     c_bands:  2 eigenvalues not converged
     c_bands:  4 eigenvalues not converged
     c_bands:  1 eigenvalues not converged
     c_bands:  3 eigenvalues not converged
     c_bands:  2 eigenvalues not converged
     c_bands:  4 eigenvalues not converged
     c_bands:  4 eigenvalues not converged
     c_bands:  1 eigenvalues not converged
     c_bands:  1 eigenvalues not converged
     c_bands:  1 eigenvalues not converged
     c_bands:  3 eigenvalues not converged
     c_bands:  2 eigenvalues not converged
     c_bands:  2 eigenvalues not converged
     c_bands:  3 eigenvalues not converged
     c_bands:  1 eigenvalues not converged
     c_bands:  2 eigenvalues not converged
     c_bands:  4 eigenvalues not converged
     c_bands:  2 eigenvalues not converged
     c_bands:  1 eigenvalues not converged
     c_bands:  2 eigenvalues not converged
     c_bands:  1 eigenvalues not converged
     c_bands:  4 eigenvalues not converged
     c_bands:  1 eigenvalues not converged
     ethr =  2.43E-05,  avg # of iterations = 17.5

     total cpu time spent up to now is       51.7 secs

     total energy              =    -306.86752999 Ry
     estimated scf accuracy    <       0.01995305 Ry

     iteration #  2     ecut=   120.00 Ry     beta= 0.70
     Davidson diagonalization with overlap
     ethr =  9.07E-05,  avg # of iterations =  4.4

     total cpu time spent up to now is       61.6 secs

     total energy              =    -306.87253251 Ry
     estimated scf accuracy    <       0.00143189 Ry

     iteration #  3     ecut=   120.00 Ry     beta= 0.70
     Davidson diagonalization with overlap
     c_bands:  2 eigenvalues not converged
     ethr =  6.51E-06,  avg # of iterations =  8.2

     total cpu time spent up to now is       76.5 secs

     total energy              =    -306.87356036 Ry
     estimated scf accuracy    <       0.00027828 Ry

     iteration #  4     ecut=   120.00 Ry     beta= 0.70
     Davidson diagonalization with overlap
     c_bands:  1 eigenvalues not converged
     ethr =  1.26E-06,  avg # of iterations =  7.1

     total cpu time spent up to now is       89.7 secs

     total energy              =    -306.87373882 Ry
     estimated scf accuracy    <       0.00014060 Ry

     iteration #  5     ecut=   120.00 Ry     beta= 0.70
     Davidson diagonalization with overlap
     c_bands:  1 eigenvalues not converged
     ethr =  6.39E-07,  avg # of iterations =  6.7

     total cpu time spent up to now is      101.3 secs

     total energy              =    -306.87381695 Ry
     estimated scf accuracy    <       0.00002417 Ry

     iteration #  6     ecut=   120.00 Ry     beta= 0.70
     Davidson diagonalization with overlap
     ethr =  1.10E-07,  avg # of iterations =  6.4

     total cpu time spent up to now is      112.2 secs

     total energy              =    -306.87381503 Ry
     estimated scf accuracy    <       0.00002192 Ry

     iteration #  7     ecut=   120.00 Ry     beta= 0.70
     Davidson diagonalization with overlap
     ethr =  9.96E-08,  avg # of iterations =  5.1

     total cpu time spent up to now is      122.4 secs

     total energy              =    -306.87382168 Ry
     estimated scf accuracy    <       0.00000002 Ry

     iteration #  8     ecut=   120.00 Ry     beta= 0.70
     Davidson diagonalization with overlap
     c_bands:  1 eigenvalues not converged
     c_bands:  1 eigenvalues not converged
     c_bands:  1 eigenvalues not converged
     c_bands:  2 eigenvalues not converged
     c_bands:  3 eigenvalues not converged
     c_bands:  2 eigenvalues not converged
     c_bands:  4 eigenvalues not converged
     c_bands:  4 eigenvalues not converged
     c_bands:  4 eigenvalues not converged
     c_bands:  2 eigenvalues not converged
     c_bands:  4 eigenvalues not converged
     c_bands:  4 eigenvalues not converged
     c_bands:  1 eigenvalues not converged
     c_bands:  3 eigenvalues not converged
     c_bands:  4 eigenvalues not converged
     c_bands:  4 eigenvalues not converged
     c_bands:  2 eigenvalues not converged
     c_bands:  4 eigenvalues not converged
     c_bands:  4 eigenvalues not converged
     c_bands:  2 eigenvalues not converged
     c_bands:  4 eigenvalues not converged
     c_bands:  2 eigenvalues not converged
     c_bands:  3 eigenvalues not converged
     c_bands:  3 eigenvalues not converged
     c_bands:  4 eigenvalues not converged
     c_bands:  5 eigenvalues not converged
     c_bands:  4 eigenvalues not converged
     c_bands:  2 eigenvalues not converged
     c_bands:  4 eigenvalues not converged
     c_bands:  1 eigenvalues not converged
     c_bands:  4 eigenvalues not converged
     c_bands:  4 eigenvalues not converged
     c_bands:  4 eigenvalues not converged
     c_bands:  4 eigenvalues not converged
     c_bands:  4 eigenvalues not converged
     c_bands:  3 eigenvalues not converged
     c_bands:  4 eigenvalues not converged
     c_bands:  1 eigenvalues not converged
     ethr =  8.00E-11,  avg # of iterations = 30.8

     total cpu time spent up to now is      184.6 secs

     total energy              =    -306.87382416 Ry
     estimated scf accuracy    <       0.00000069 Ry

     iteration #  9     ecut=   120.00 Ry     beta= 0.70
     Davidson diagonalization with overlap
     c_bands:  1 eigenvalues not converged
     ethr =  8.00E-11,  avg # of iterations = 11.4

     total cpu time spent up to now is      201.3 secs

     total energy              =    -306.87382424 Ry
     estimated scf accuracy    <       0.00000005 Ry

     iteration # 10     ecut=   120.00 Ry     beta= 0.70
     Davidson diagonalization with overlap
     ethr =  8.00E-11,  avg # of iterations =  2.3

     total cpu time spent up to now is      209.4 secs

     total energy              =    -306.87382423 Ry
     estimated scf accuracy    <       0.00000002 Ry

     iteration # 11     ecut=   120.00 Ry     beta= 0.70
     Davidson diagonalization with overlap
     ethr =  8.00E-11,  avg # of iterations =  6.7

     total cpu time spent up to now is      221.5 secs

     End of self-consistent calculation

          k = 0.0000 0.0000 0.0000 (  7499 PWs)   bands (ev):

   -40.1390 -40.0747 -19.2242 -18.8907 -18.8907 -18.8323 -18.8323 -18.8153
     3.7531   7.1391   9.3006  10.3499  10.3499  10.4601  10.7536

          k = 0.0000 0.0000 0.0784 (  7469 PWs)   bands (ev):

   -40.1366 -40.0772 -19.2091 -18.8885 -18.8885 -18.8345 -18.8345 -18.8314
     3.8543   6.9859   9.2695  10.3072  10.3072  10.3950  10.6980

          k = 0.0000 0.0000 0.1568 (  7451 PWs)   bands (ev):

   -40.1297 -40.0842 -19.1660 -18.8822 -18.8822 -18.8769 -18.8409 -18.8409
     4.1513   6.5411   9.2770  10.2125  10.2447  10.2448  10.5631

          k = 0.0000 0.0000 0.2353 (  7493 PWs)   bands (ev):

   -40.1193 -40.0946 -19.1009 -18.9445 -18.8727 -18.8727 -18.8504 -18.8504
     4.6230   5.9062   9.4170   9.9495  10.2327  10.2331  10.4106

          k = 0.0000 0.0000-0.3137 (  7438 PWs)   bands (ev):

   -40.1070 -40.1070 -19.0232 -19.0232 -18.8615 -18.8615 -18.8615 -18.8615
     5.2301   5.2301   9.6628   9.6628  10.2908  10.2908  10.2908

          k = 0.0000 0.0962 0.0000 (  7473 PWs)   bands (ev):

   -40.1357 -40.0733 -19.2154 -18.9089 -18.8967 -18.8513 -18.8349 -18.8190
     3.9044   7.2691   9.1757  10.0807  10.4593  10.6273  10.6890

          k = 0.0000 0.0962 0.0784 (  7470 PWs)   bands (ev):

   -40.1333 -40.0757 -19.2012 -18.9063 -18.8944 -18.8594 -18.8373 -18.8287
     4.0041   7.1155   9.1475  10.0767  10.4049  10.5024  10.6293

          k = 0.0000 0.0962 0.1568 (  7453 PWs)   bands (ev):

   -40.1266 -40.0825 -19.1607 -18.8993 -18.8928 -18.8877 -18.8450 -18.8440
     4.2969   6.6684   9.1695  10.0826  10.2313  10.3316  10.6461

          k = 0.0000 0.0962 0.2353 (  7452 PWs)   bands (ev):

   -40.1165 -40.0927 -19.0997 -18.9541 -18.8871 -18.8777 -18.8592 -18.8540
     4.7624   6.0340   9.3301   9.9163  10.1293  10.3166  10.3753

          k = 0.0000 0.0962-0.3137 (  7450 PWs)   bands (ev):

   -40.1046 -40.1046 -19.0270 -19.0270 -18.8735 -18.8735 -18.8659 -18.8659
     5.3628   5.3628   9.5986   9.5986  10.2298  10.2318  10.3747

          k = 0.0000 0.1925 0.0000 (  7493 PWs)   bands (ev):

   -40.1265 -40.0698 -19.1902 -18.9590 -18.9128 -18.9025 -18.8424 -18.8302
     4.3436   7.6174   8.8894   9.6695  10.4041  10.7768  10.8103

          k = 0.0000 0.1925 0.0784 (  7482 PWs)   bands (ev):

   -40.1243 -40.0720 -19.1791 -18.9549 -18.9120 -18.9102 -18.8451 -18.8365
     4.4385   7.4640   8.8729   9.6889  10.3952  10.5396  10.6266

          k = 0.0000 0.1925 0.1568 (  7474 PWs)   bands (ev):

   -40.1182 -40.0781 -19.1475 -18.9484 -18.9353 -18.9026 -18.8530 -18.8528
     4.7174   7.0135   8.9337   9.7456  10.1700  10.4040  10.5367

          k = 0.0000 0.1925 0.2353 (  7464 PWs)   bands (ev):

   -40.1090 -40.0874 -19.1001 -18.9889 -18.9217 -18.8912 -18.8751 -18.8642
     5.1617   6.3874   9.1350   9.7339   9.9534  10.2559  10.5301

          k = 0.0000 0.1925-0.3137 (  7478 PWs)   bands (ev):

   -40.0982 -40.0982 -19.0442 -19.0442 -18.8991 -18.8991 -18.8777 -18.8777
     5.7375   5.7375   9.4311   9.4311  10.0748  10.0749  10.6013

          k = 0.0000 0.2887 0.0000 (  7493 PWs)   bands (ev):

   -40.1133 -40.0655 -19.1524 -19.0282 -18.9703 -18.9340 -18.8534 -18.8490
     5.0251   8.0243   8.5814   9.2452  10.1847  10.4655  10.5656

          k = 0.0000 0.2887 0.0784 (  7489 PWs)   bands (ev):

   -40.1115 -40.0673 -19.1489 -19.0195 -18.9794 -18.9309 -18.8565 -18.8523
     5.1103   7.8763   8.5922   9.2760  10.1571  10.4058  10.5787

          k = 0.0000 0.2887 0.1568 (  7487 PWs)   bands (ev):

   -40.1063 -40.0725 -19.1371 -19.0153 -18.9845 -18.9223 -18.8653 -18.8639
     5.3607   7.4428   8.7092   9.3525  10.0112  10.2949  10.6283

          k = 0.0000 0.2887 0.2353 (  7496 PWs)   bands (ev):

   -40.0986 -40.0803 -19.1152 -19.0477 -18.9529 -18.9092 -18.8859 -18.8784
     5.7597   6.8651   8.9359   9.3899   9.8524  10.1251  10.7290

          k = 0.0000 0.2887-0.3137 (  7502 PWs)   bands (ev):

   -40.0894 -40.0894 -19.0840 -19.0840 -18.9170 -18.9170 -18.8938 -18.8938
     6.2774   6.2774   9.2081   9.2082   9.9277   9.9279  10.8819

          k = 0.0000 0.3849 0.0000 (  7479 PWs)   bands (ev):

   -40.0991 -40.0621 -19.1080 -19.0980 -19.0360 -18.9545 -18.8742 -18.8649
     5.8644   8.1835   8.3318   8.9107  10.2105  10.2185  10.3533

          k = 0.0000 0.3849 0.0784 (  7498 PWs)   bands (ev):

   -40.0977 -40.0636 -19.1344 -19.0671 -19.0404 -18.9511 -18.8742 -18.8683
     5.9314   8.0422   8.4008   8.9523  10.0656  10.2972  10.4028

          k = 0.0000 0.3849 0.1568 (  7502 PWs)   bands (ev):

   -40.0937 -40.0676 -19.1511 -19.0797 -19.0069 -18.9415 -18.8784 -18.8781
     6.1275   7.7096   8.5617   9.0404   9.9200  10.2469  10.5479

          k = 0.0000 0.3849 0.2353 (  7502 PWs)   bands (ev):

   -40.0877 -40.0736 -19.1515 -19.1102 -18.9610 -18.9270 -18.8933 -18.8927
     6.4381   7.2806   8.7845   9.0940   9.8329  10.0780  10.7781

          k = 0.0000 0.3849-0.3137 (  7512 PWs)   bands (ev):

   -40.0806 -40.0806 -19.1365 -19.1365 -18.9214 -18.9214 -18.9099 -18.9099
     6.8363   6.8363   9.0006   9.0006   9.8946   9.8946  11.0730

          k = 0.0000 0.4811 0.0000 (  7489 PWs)   bands (ev):

   -40.0873 -40.0611 -19.1493 -19.0829 -19.0668 -18.9692 -18.9014 -18.8735
     6.7154   8.0178   8.1746   8.6612  10.0479  10.2120  10.4240

          k = 0.0000 0.4811 0.0784 (  7497 PWs)   bands (ev):

   -40.0863 -40.0621 -19.1634 -19.0967 -19.0419 -18.9656 -18.8980 -18.8772
     6.7471   7.9221   8.2735   8.6915  10.0533  10.2740  10.3777

          k = 0.0000 0.4811 0.1568 (  7506 PWs)   bands (ev):

   -40.0835 -40.0649 -19.1821 -19.1252 -18.9979 -18.9553 -18.8942 -18.8877
     6.8435   7.7266   8.4669   8.7883  10.0404  10.2550  10.4567

          k = 0.0000 0.4811 0.2353 (  7501 PWs)   bands (ev):

   -40.0792 -40.0692 -19.1884 -19.1559 -18.9544 -18.9399 -18.9033 -18.9001
     7.0053   7.4782   8.6979   8.8987   9.9836  10.1052  10.7500

          k = 0.0000 0.4811-0.3137 (  7480 PWs)   bands (ev):

   -40.0742 -40.0742 -19.1789 -19.1789 -18.9216 -18.9216 -18.9203 -18.9203
     7.2245   7.2245   8.8811   8.8811   9.9871   9.9871  11.1343

          k = 0.0000-0.5774 0.0000 (  7500 PWs)   bands (ev):

   -40.0823 -40.0613 -19.1681 -19.0998 -19.0474 -18.9745 -18.9156 -18.8768
     7.2297   7.7823   8.1213   8.5460   9.9871  10.1627  10.5232

          k = 0.0000-0.5774 0.0784 (  7494 PWs)   bands (ev):

   -40.0815 -40.0621 -19.1793 -19.1125 -19.0284 -18.9708 -18.9103 -18.8805
     7.2092   7.7593   8.2325   8.5433  10.0423  10.2281  10.4522

          k = 0.0000-0.5774 0.1568 (  7514 PWs)   bands (ev):

   -40.0793 -40.0644 -19.1964 -19.1417 -18.9892 -18.9603 -18.9024 -18.8912
     7.1940   7.6665   8.4957   8.5942  10.1383  10.2726  10.4213

          k = 0.0000-0.5774 0.2353 (  7516 PWs)   bands (ev):

   -40.0759 -40.0678 -19.2032 -19.1725 -18.9495 -18.9445 -18.9071 -18.9036
     7.2375   7.5099   8.7322   8.7643  10.0901  10.1457  10.7324

          k = 0.0000-0.5774-0.3137 (  7488 PWs)   bands (ev):

   -40.0718 -40.0718 -19.1949 -19.1949 -18.9259 -18.9259 -18.9194 -18.9194
     7.3502   7.3502   8.8499   8.8499  10.0612  10.0617  11.1427

          k = 0.0833 0.1443 0.0000 (  7485 PWs)   bands (ev):

   -40.1294 -40.0709 -19.1984 -18.9396 -18.9158 -18.8794 -18.8424 -18.8265
     4.1999   7.5105   8.9750   9.7813  10.4847  10.6884  10.7601

          k = 0.0833 0.1443 0.0784 (  7492 PWs)   bands (ev):

   -40.1272 -40.0731 -19.1862 -18.9359 -18.9152 -18.8874 -18.8450 -18.8332
     4.2965   7.3567   8.9540   9.7963  10.4928  10.5081  10.5821

          k = 0.0833 0.1443 0.1568 (  7477 PWs)   bands (ev):

   -40.1209 -40.0795 -19.1514 -18.9292 -18.9255 -18.8974 -18.8523 -18.8490
     4.5803   6.9063   9.0021   9.8447  10.1962  10.4323  10.4901

          k = 0.0833 0.1443 0.2353 (  7455 PWs)   bands (ev):

   -40.1114 -40.0890 -19.0991 -18.9764 -18.9098 -18.8906 -18.8676 -18.8630
     5.0323   6.2756   9.1928   9.8099   9.9865  10.2860  10.4761

          k = 0.0833 0.1443-0.3137 (  7456 PWs)   bands (ev):

   -40.1002 -40.1002 -19.0374 -19.0374 -18.8921 -18.8921 -18.8742 -18.8742
     5.6172   5.6172   9.4855   9.4856  10.1154  10.1156  10.5320

          k = 0.0833 0.2406 0.0000 (  7495 PWs)   bands (ev):

   -40.1182 -40.0670 -19.1668 -18.9946 -18.9608 -18.9135 -18.8554 -18.8415
     4.7623   7.9077   8.6960   9.3704  10.2552  10.4605  10.7516

          k = 0.0833 0.2406 0.0784 (  7500 PWs)   bands (ev):

   -40.1163 -40.0689 -19.1595 -18.9886 -18.9648 -18.9167 -18.8585 -18.8449
     4.8519   7.7560   8.6917   9.3981  10.2642  10.3816  10.6753

          k = 0.0833 0.2406 0.1568 (  7480 PWs)   bands (ev):

   -40.1107 -40.0745 -19.1385 -18.9894 -18.9657 -18.9174 -18.8673 -18.8560
     5.1152   7.3072   8.7863   9.4735  10.0850  10.3005  10.6256

          k = 0.0833 0.2406 0.2353 (  7471 PWs)   bands (ev):

   -40.1025 -40.0828 -19.1058 -19.0237 -18.9409 -18.9108 -18.8805 -18.8736
     5.5350   6.7000   9.0090   9.5175   9.8703  10.1404  10.6775

          k = 0.0833 0.2406-0.3137 (  7482 PWs)   bands (ev):

   -40.0927 -40.0927 -19.0656 -19.0656 -18.9147 -18.9147 -18.8877 -18.8877
     6.0804   6.0804   9.2995   9.2996   9.9455   9.9455  10.7832

          k = 0.0833 0.3368 0.0000 (  7496 PWs)   bands (ev):

   -40.1045 -40.0632 -19.1254 -19.0628 -19.0155 -18.9450 -18.8692 -18.8638
     5.5301   8.2260   8.4404   8.9949  10.1514  10.2045  10.5097

          k = 0.0833 0.3368 0.0784 (  7492 PWs)   bands (ev):

   -40.1029 -40.0648 -19.1322 -19.0490 -19.0190 -18.9449 -18.8741 -18.8627
     5.6065   8.0776   8.4824   9.0326  10.0610  10.2711  10.4924

          k = 0.0833 0.3368 0.1568 (  7486 PWs)   bands (ev):

   -40.0984 -40.0693 -19.1377 -19.0545 -18.9987 -18.9402 -18.8847 -18.8665
     5.8308   7.6809   8.6302   9.1226   9.9182  10.2204  10.5623

          k = 0.0833 0.3368 0.2353 (  7489 PWs)   bands (ev):

   -40.0918 -40.0760 -19.1309 -19.0831 -18.9606 -18.9294 -18.8985 -18.8801
     6.1875   7.1692   8.8560   9.1949   9.7843  10.0277  10.7523

          k = 0.0833 0.3368-0.3137 (  7494 PWs)   bands (ev):

   -40.0839 -40.0839 -19.1113 -19.1113 -18.9307 -18.9307 -18.8993 -18.8993
     6.6484   6.6484   9.0923   9.0923   9.8291   9.8291  10.9893

          k = 0.0833 0.4330 0.0000 (  7489 PWs)   bands (ev):

   -40.0913 -40.0612 -19.1231 -19.0813 -19.0633 -18.9695 -18.8912 -18.8812
     6.3936   8.1978   8.2569   8.7309  10.0368  10.2773  10.3212

          k = 0.0833 0.4330 0.0784 (  7489 PWs)   bands (ev):

   -40.0901 -40.0623 -19.1422 -19.0814 -19.0459 -18.9669 -18.8926 -18.8805
     6.4458   8.0658   8.3507   8.7819   9.9855  10.2610  10.3646

          k = 0.0833 0.4330 0.1568 (  7505 PWs)   bands (ev):

   -40.0869 -40.0656 -19.1620 -19.1055 -19.0042 -18.9566 -18.9016 -18.8792
     6.5985   7.8125   8.5198   8.8948   9.8821  10.1541  10.5174

          k = 0.0833 0.4330 0.2353 (  7496 PWs)   bands (ev):

   -40.0820 -40.0705 -19.1675 -19.1345 -18.9679 -18.9383 -18.9146 -18.8860
     6.8400   7.4886   8.7436   8.9886   9.7952   9.9682  10.7683

          k = 0.0833 0.4330-0.3137 (  7494 PWs)   bands (ev):

   -40.0762 -40.0762 -19.1574 -19.1574 -18.9430 -18.9430 -18.9040 -18.9040
     7.1483   7.1483   8.9426   8.9426   9.8127   9.8127  11.0940

          k = 0.0833 0.5292 0.0000 (  7483 PWs)   bands (ev):

   -40.0824 -40.0613 -19.1579 -19.0910 -19.0477 -18.9829 -18.9152 -18.8881
     7.1518   7.9459   8.1629   8.5447   9.9713  10.1212  10.5185

          k = 0.0833 0.5292 0.0784 (  7496 PWs)   bands (ev):

   -40.0816 -40.0621 -19.1691 -19.1042 -19.0304 -18.9774 -18.9123 -18.8893
     7.1565   7.8945   8.2652   8.5666   9.9868  10.1285  10.5054

          k = 0.0833 0.5292 0.1568 (  7499 PWs)   bands (ev):

   -40.0793 -40.0644 -19.1862 -19.1332 -18.9995 -18.9592 -18.9151 -18.8887
     7.1881   7.7693   8.4843   8.6717   9.9875  10.0673  10.5777

          k = 0.0833 0.5292 0.2353 (  7511 PWs)   bands (ev):

   -40.0759 -40.0678 -19.1932 -19.1636 -18.9732 -18.9345 -18.9260 -18.8907
     7.2720   7.5930   8.7227   8.8462   9.8810   9.9529  10.8209

          k = 0.0833 0.5292-0.3137 (  7510 PWs)   bands (ev):

   -40.0718 -40.0718 -19.1854 -19.1854 -18.9507 -18.9507 -18.9044 -18.9044
     7.4135   7.4135   8.8912   8.8912   9.8447   9.8448  11.1712

          k = 0.1667 0.2887 0.0000 (  7511 PWs)   bands (ev):

   -40.1064 -40.0636 -19.1314 -19.0327 -19.0250 -18.9337 -18.8790 -18.8604
     5.4164   8.2627   8.4953   8.9988  10.1419  10.1601  10.5985

          k = 0.1667 0.2887 0.0784 (  7508 PWs)   bands (ev):

   -40.1048 -40.0653 -19.1332 -19.0291 -19.0194 -18.9388 -18.8820 -18.8597
     5.4961   8.1095   8.5248   9.0325  10.1098  10.1910  10.5437

          k = 0.1667 0.2887 0.1568 (  7492 PWs)   bands (ev):

   -40.1002 -40.0699 -19.1322 -19.0446 -18.9883 -18.9445 -18.8901 -18.8631
     5.7301   7.6826   8.6667   9.1253   9.9602  10.1816  10.5356

          k = 0.1667 0.2887 0.2353 (  7481 PWs)   bands (ev):

   -40.0932 -40.0769 -19.1211 -19.0710 -18.9539 -18.9415 -18.8994 -18.8763
     6.1029   7.1366   8.8944   9.2229   9.7772   9.9865  10.7095

          k = 0.1667 0.2887-0.3137 (  7474 PWs)   bands (ev):

   -40.0850 -40.0850 -19.0993 -19.0993 -18.9368 -18.9368 -18.8956 -18.8956
     6.5866   6.5866   9.1381   9.1381   9.7856   9.7856  10.9331

          k = 0.1667 0.3849 0.0000 (  7505 PWs)   bands (ev):

   -40.0935 -40.0613 -19.0892 -19.0884 -19.0595 -18.9662 -18.9014 -18.8859
     6.2278   8.3436   8.4186   8.6996   9.9477  10.2284  10.3569

          k = 0.1667 0.3849 0.0784 (  7496 PWs)   bands (ev):

   -40.0923 -40.0626 -19.1188 -19.0794 -19.0356 -18.9709 -18.9056 -18.8802
     6.2910   8.2246   8.4782   8.7450   9.9115  10.2521  10.3065

          k = 0.1667 0.3849 0.1568 (  7497 PWs)   bands (ev):

   -40.0888 -40.0661 -19.1393 -19.0934 -18.9973 -18.9718 -18.9142 -18.8745
     6.4759   7.9365   8.6232   8.8540   9.8157  10.0732  10.4321

          k = 0.1667 0.3849 0.2353 (  7490 PWs)   bands (ev):

   -40.0836 -40.0713 -19.1448 -19.1157 -18.9765 -18.9577 -18.9161 -18.8794
     6.7677   7.5497   8.8254   8.9797   9.6875   9.8301  10.6652

          k = 0.1667 0.3849-0.3137 (  7480 PWs)   bands (ev):

   -40.0774 -40.0774 -19.1356 -19.1356 -18.9626 -18.9626 -18.8968 -18.8968
     7.1396   7.1396   8.9943   8.9943   9.6567   9.6567  10.9741

          k = 0.1667 0.4811 0.0000 (  7495 PWs)   bands (ev):

   -40.0825 -40.0612 -19.1315 -19.0757 -19.0484 -18.9976 -18.9165 -18.9146
     7.0539   8.2451   8.2559   8.5328   9.8643  10.1064  10.4862

          k = 0.1667 0.4811 0.0784 (  7497 PWs)   bands (ev):

   -40.0816 -40.0620 -19.1420 -19.0923 -19.0305 -18.9922 -18.9256 -18.9015
     7.0891   8.1447   8.3471   8.6042   9.8366  10.0433  10.5045

          k = 0.1667 0.4811 0.1568 (  7500 PWs)   bands (ev):

   -40.0793 -40.0643 -19.1597 -19.1179 -19.0164 -18.9674 -18.9342 -18.8878
     7.1924   7.9876   8.5091   8.7648   9.7476   9.8689  10.5924

          k = 0.1667 0.4811 0.2353 (  7496 PWs)   bands (ev):

   -40.0759 -40.0678 -19.1684 -19.1442 -19.0017 -18.9651 -18.9190 -18.8842
     7.3560   7.7851   8.7379   8.9335   9.6185   9.6375  10.7798

          k = 0.1667 0.4811-0.3137 (  7494 PWs)   bands (ev):

   -40.0718 -40.0718 -19.1629 -19.1629 -18.9830 -18.9830 -18.8952 -18.8952
     7.5630   7.5630   8.9469   8.9469   9.5238   9.5238  11.0641

          k = 0.1667 0.5774 0.0000 (  7499 PWs)   bands (ev):

   -40.0775 -40.0621 -19.1470 -19.0800 -19.0277 -19.0110 -18.9308 -18.9218
     7.5564   8.0287   8.2281   8.4378   9.9084   9.9399  10.6145

          k = 0.1667 0.5774 0.0784 (  7497 PWs)   bands (ev):

   -40.0769 -40.0627 -19.1553 -19.0938 -19.0329 -18.9876 -18.9374 -18.9109
     7.5482   8.0158   8.3202   8.4700   9.8721   9.9044  10.6273

          k = 0.1667 0.5774 0.1568 (  7497 PWs)   bands (ev):

   -40.0752 -40.0644 -19.1705 -19.1238 -19.0271 -18.9507 -18.9505 -18.8947
     7.5546   7.9540   8.5516   8.5902   9.7656   9.7721  10.7052

          k = 0.1667 0.5774 0.2353 (  7505 PWs)   bands (ev):

   -40.0727 -40.0668 -19.1786 -19.1533 -19.0113 -18.9693 -18.9167 -18.8872
     7.6092   7.8402   8.7973   8.8350   9.5533   9.5936  10.8839

          k = 0.1667 0.5774-0.3137 (  7522 PWs)   bands (ev):

   -40.0698 -40.0698 -19.1730 -19.1730 -18.9907 -18.9907 -18.8943 -18.8943
     7.7122   7.7122   8.9774   8.9774   9.4316   9.4316  11.1532

          k = 0.2500 0.4330 0.0000 (  7495 PWs)   bands (ev):

   -40.0825 -40.0612 -19.1087 -19.0790 -19.0487 -18.9969 -18.9374 -18.9142
     7.0182   8.3089   8.4408   8.4814   9.7883  10.1165  10.4531

          k = 0.2500 0.4330 0.0784 (  7505 PWs)   bands (ev):

   -40.0817 -40.0620 -19.1107 -19.1070 -19.0164 -19.0071 -18.9398 -18.9036
     7.0650   8.2469   8.4779   8.5576   9.7723  10.0121  10.4633

          k = 0.2500 0.4330 0.1568 (  7497 PWs)   bands (ev):

   -40.0794 -40.0643 -19.1354 -19.1199 -19.0183 -18.9834 -18.9392 -18.8878
     7.2001   8.1092   8.5875   8.7161   9.7057   9.7687  10.5201

          k = 0.2500 0.4330 0.2353 (  7491 PWs)   bands (ev):

   -40.0759 -40.0678 -19.1498 -19.1361 -19.0144 -18.9844 -18.9161 -18.8825
     7.4068   7.9050   8.7576   8.8927   9.5111   9.5696  10.6794

          k = 0.2500 0.4330-0.3137 (  7504 PWs)   bands (ev):

   -40.0718 -40.0718 -19.1490 -19.1490 -19.0001 -19.0001 -18.8925 -18.8925
     7.6559   7.6559   8.9258   8.9258   9.4294   9.4294  10.9646

          k = 0.2500 0.5292 0.0000 (  7503 PWs)   bands (ev):

   -40.0741 -40.0632 -19.1239 -19.0678 -19.0316 -19.0125 -18.9601 -18.9434
     7.7093   8.2588   8.3106   8.3761   9.7625   9.8908  10.6771

          k = 0.2500 0.5292 0.0784 (  7503 PWs)   bands (ev):

   -40.0737 -40.0636 -19.1269 -19.0866 -19.0471 -18.9871 -18.9644 -18.9268
     7.7375   8.2314   8.3434   8.4647   9.7222   9.7957  10.6812

          k = 0.2500 0.5292 0.1568 (  7492 PWs)   bands (ev):

   -40.0725 -40.0647 -19.1393 -19.1137 -19.0567 -18.9863 -18.9396 -18.9025
     7.8155   8.1879   8.4674   8.6481   9.5462   9.6082  10.7165

          k = 0.2500 0.5292 0.2353 (  7501 PWs)   bands (ev):

   -40.0707 -40.0665 -19.1516 -19.1378 -19.0468 -19.0050 -18.9079 -18.8881
     7.9246   8.1282   8.6718   8.8858   9.2463   9.4052  10.8307

          k = 0.2500 0.5292-0.3137 (  7500 PWs)   bands (ev):

   -40.0686 -40.0686 -19.1518 -19.1518 -19.0270 -19.0270 -18.8896 -18.8896
     8.0375   8.0375   8.9371   8.9371   9.1551   9.1551  11.0602

          k = 0.3333 0.5774 0.0000 (  7497 PWs)   bands (ev):

   -40.0675 -40.0675 -19.1144 -19.0530 -19.0530 -18.9859 -18.9767 -18.9767
     8.1578   8.1578   8.2616   8.3470   9.7593   9.7593  10.7719

          k = 0.3333 0.5774 0.0784 (  7488 PWs)   bands (ev):

   -40.0675 -40.0675 -19.1095 -19.0745 -19.0745 -18.9908 -18.9549 -18.9549
     8.2036   8.2036   8.2806   8.3656   9.6818   9.6818  10.7706

          k = 0.3333 0.5774 0.1568 (  7476 PWs)   bands (ev):

   -40.0674 -40.0674 -19.1076 -19.1076 -19.0958 -19.0049 -18.9211 -18.9211
     8.3309   8.3339   8.3339   8.4086   9.4813   9.4813  10.7875

          k = 0.3333 0.5774 0.2353 (  7485 PWs)   bands (ev):

   -40.0674 -40.0674 -19.1316 -19.1316 -19.0751 -19.0259 -18.8965 -18.8965
     8.3931   8.4430   8.5217   8.5217   9.2314   9.2314  10.8738

          k = 0.3333 0.5774-0.3137 (  7512 PWs)   bands (ev):

   -40.0674 -40.0674 -19.1402 -19.1402 -19.0505 -19.0505 -18.8877 -18.8877
     8.4386   8.4386   8.6522   8.6522   9.0769   9.0769  11.0782

     the Fermi energy is     8.8141 ev

!    total energy              =    -306.87382424 Ry
     total all-electron energy =     -3050.014595 Ry
     estimated scf accuracy    <          5.1E-09 Ry
     smearing contrib. (-TS)   =      -0.00104030 Ry
     internal energy E=F+TS    =    -306.87278394 Ry

     The total energy is F=E-TS. E is the sum of the following terms:
     one-electron contribution =     -74.40844099 Ry
     hartree contribution      =      42.28647551 Ry
     xc contribution           =     -34.52795513 Ry
     ewald contribution        =    -126.46581261 Ry
     one-center paw contrib.   =    -113.75705071 Ry

     convergence has been achieved in  11 iterations

     Forces acting on atoms (cartesian axes, Ry/au):

     atom    1 type  1   force =     0.00000000    0.00000000    0.00000000
     atom    2 type  1   force =    -0.00000000   -0.00000000    0.00000000
     The non-local contrib.  to forces
     atom    1 type  1   force =    -0.00000000   -0.00000000    0.00000000
     atom    2 type  1   force =     0.00000000    0.00000000    0.00000000
     The ionic contribution  to forces
     atom    1 type  1   force =     0.00000000   -0.00000000    0.00000000
     atom    2 type  1   force =    -0.00000000    0.00000000    0.00000000
     The local contribution  to forces
     atom    1 type  1   force =     0.00000000    0.00000000    0.00000000
     atom    2 type  1   force =    -0.00000000    0.00000000    0.00000000
     The core correction contribution to forces
     atom    1 type  1   force =     0.00000000    0.00000000    0.00000000
     atom    2 type  1   force =     0.00000000   -0.00000000    0.00000000
     The Hubbard contrib.    to forces
     atom    1 type  1   force =     0.00000000    0.00000000    0.00000000
     atom    2 type  1   force =     0.00000000    0.00000000    0.00000000
     The SCF correction term to forces
     atom    1 type  1   force =    -0.00000000    0.00000000    0.00000000
     atom    2 type  1   force =     0.00000000   -0.00000000   -0.00000000

     Total force =     0.000000     Total SCF correction =     0.000000


     Computing stress (Cartesian axis) and pressure

          total   stress  (Ry/bohr**3)                   (kbar)     P=      -54.62
  -0.00033107   0.00000000   0.00000000          -48.70        0.00        0.00
   0.00000000  -0.00033107   0.00000000            0.00      -48.70        0.00
   0.00000000   0.00000000  -0.00045180            0.00        0.00      -66.46


     BFGS Geometry Optimization
     Energy error            =      0.0E+00 Ry
     Gradient error          =      1.6E-27 Ry/Bohr
     Cell gradient error     =      6.6E+01 kbar

     number of scf cycles    =   1
     number of bfgs steps    =   0

     enthalpy           new  =    -306.8738242407 Ry

     new trust radius        =       0.0415017244 bohr
     new conv_thr            =       0.0000000100 Ry

     new unit-cell volume =    328.21131 a.u.^3 (    48.63590 Ang^3 )
     density =      3.04522 g/cm^3

CELL_PARAMETERS (alat=  6.25310370)
   0.991723191   0.000000000   0.000000000
  -0.495861596   0.858857477   0.000000000
   0.000000000   0.000000000   1.575995895

ATOMIC_POSITIONS (crystal)
Sc            0.0000000000        0.0000000000        0.0000000000
Sc            0.6666666667        0.3333333333        0.5000000000



     Writing config-only to output data dir sc_vcrelax.out/scandium.save/
     NEW-OLD atomic charge density approx. for the potential

     Check: negative core charge=   -0.000003
     extrapolated charge   21.37583, renormalised to   22.00000

     total cpu time spent up to now is      231.8 secs

     Self-consistent Calculation

     iteration #  1     ecut=   120.00 Ry     beta= 0.70
     Davidson diagonalization with overlap
     c_bands:  1 eigenvalues not converged
     c_bands:  2 eigenvalues not converged
     c_bands:  2 eigenvalues not converged
     c_bands:  1 eigenvalues not converged
     c_bands:  1 eigenvalues not converged
     c_bands:  1 eigenvalues not converged
     c_bands:  1 eigenvalues not converged
     c_bands:  1 eigenvalues not converged
     c_bands:  2 eigenvalues not converged
     c_bands:  2 eigenvalues not converged
     c_bands:  2 eigenvalues not converged
     c_bands:  2 eigenvalues not converged
     c_bands:  3 eigenvalues not converged
     c_bands:  2 eigenvalues not converged
     c_bands:  1 eigenvalues not converged
     c_bands:  2 eigenvalues not converged
     c_bands:  5 eigenvalues not converged
     c_bands:  1 eigenvalues not converged
     c_bands:  1 eigenvalues not converged
     c_bands:  2 eigenvalues not converged
     c_bands:  1 eigenvalues not converged
     c_bands:  1 eigenvalues not converged
     c_bands:  1 eigenvalues not converged
     c_bands:  4 eigenvalues not converged
     c_bands:  2 eigenvalues not converged
     c_bands:  1 eigenvalues not converged
     c_bands:  2 eigenvalues not converged
     c_bands:  2 eigenvalues not converged
     c_bands:  1 eigenvalues not converged
     c_bands:  4 eigenvalues not converged
     c_bands:  2 eigenvalues not converged
     c_bands:  5 eigenvalues not converged
     c_bands:  5 eigenvalues not converged
     c_bands:  5 eigenvalues not converged
     c_bands:  2 eigenvalues not converged
     c_bands:  2 eigenvalues not converged
     c_bands:  2 eigenvalues not converged
     c_bands:  2 eigenvalues not converged
     c_bands:  3 eigenvalues not converged
     c_bands:  3 eigenvalues not converged
     c_bands:  1 eigenvalues not converged
     c_bands:  4 eigenvalues not converged
     c_bands:  3 eigenvalues not converged
     c_bands:  2 eigenvalues not converged
     c_bands:  1 eigenvalues not converged
     c_bands:  4 eigenvalues not converged
     c_bands:  3 eigenvalues not converged
     c_bands:  3 eigenvalues not converged
     c_bands:  5 eigenvalues not converged
     c_bands:  4 eigenvalues not converged
     c_bands:  2 eigenvalues not converged
     c_bands:  2 eigenvalues not converged
     c_bands:  1 eigenvalues not converged
     c_bands:  1 eigenvalues not converged
     c_bands:  4 eigenvalues not converged
     c_bands:  2 eigenvalues not converged
     ethr =  1.00E-06,  avg # of iterations = 19.4

     total cpu time spent up to now is      267.8 secs

     total energy              =    -306.76765673 Ry
     estimated scf accuracy    <       0.07866523 Ry

     iteration #  2     ecut=   120.00 Ry     beta= 0.70
     Davidson diagonalization with overlap
     ethr =  3.58E-04,  avg # of iterations =  7.1

     total cpu time spent up to now is      283.7 secs

     total energy              =    -306.87965966 Ry
     estimated scf accuracy    <       0.13320759 Ry

     iteration #  3     ecut=   120.00 Ry     beta= 0.70
     Davidson diagonalization with overlap
     ethr =  3.58E-04,  avg # of iterations =  1.2

     total cpu time spent up to now is      291.0 secs

     total energy              =    -306.87423947 Ry
     estimated scf accuracy    <       0.04073635 Ry

     iteration #  4     ecut=   120.00 Ry     beta= 0.70
     Davidson diagonalization with overlap
     ethr =  1.85E-04,  avg # of iterations =  2.7

     total cpu time spent up to now is      299.2 secs

     total energy              =    -306.87348187 Ry
     estimated scf accuracy    <       0.01660562 Ry

     iteration #  5     ecut=   120.00 Ry     beta= 0.70
     Davidson diagonalization with overlap
     ethr =  7.55E-05,  avg # of iterations =  2.8

     total cpu time spent up to now is      307.4 secs

     total energy              =    -306.87575485 Ry
     estimated scf accuracy    <       0.00663104 Ry

     iteration #  6     ecut=   120.00 Ry     beta= 0.70
     Davidson diagonalization with overlap
     ethr =  3.01E-05,  avg # of iterations =  4.7

     total cpu time spent up to now is      316.7 secs

     total energy              =    -306.87855292 Ry
     estimated scf accuracy    <       0.00435393 Ry

     iteration #  7     ecut=   120.00 Ry     beta= 0.70
     Davidson diagonalization with overlap
     ethr =  1.98E-05,  avg # of iterations =  1.9

     total cpu time spent up to now is      324.4 secs

     total energy              =    -306.88104989 Ry
     estimated scf accuracy    <       0.00602305 Ry

     iteration #  8     ecut=   120.00 Ry     beta= 0.70
     Davidson diagonalization with overlap
     ethr =  1.98E-05,  avg # of iterations =  1.5

     total cpu time spent up to now is      331.8 secs

     total energy              =    -306.87502486 Ry
     estimated scf accuracy    <       0.01011564 Ry

     iteration #  9     ecut=   120.00 Ry     beta= 0.70
     Davidson diagonalization with overlap
     ethr =  1.98E-05,  avg # of iterations =  4.3

     total cpu time spent up to now is      342.0 secs

     total energy              =    -306.87658564 Ry
     estimated scf accuracy    <       0.00042840 Ry

     iteration # 10     ecut=   120.00 Ry     beta= 0.70
     Davidson diagonalization with overlap
     ethr =  1.95E-06,  avg # of iterations = 13.4

     total cpu time spent up to now is      368.0 secs

     total energy              =    -306.88081571 Ry
     estimated scf accuracy    <       0.00787420 Ry

     iteration # 11     ecut=   120.00 Ry     beta= 0.70
     Davidson diagonalization with overlap
     ethr =  1.95E-06,  avg # of iterations =  1.9

     total cpu time spent up to now is      375.6 secs

     total energy              =    -306.88300123 Ry
     estimated scf accuracy    <       0.00930558 Ry

     iteration # 12     ecut=   120.00 Ry     beta= 0.70
     Davidson diagonalization with overlap
     ethr =  1.95E-06,  avg # of iterations =  6.5

     total cpu time spent up to now is      387.7 secs

     total energy              =    -306.88350648 Ry
     estimated scf accuracy    <       0.01593346 Ry

     iteration # 13     ecut=   120.00 Ry     beta= 0.70
     Davidson diagonalization with overlap
     ethr =  1.95E-06,  avg # of iterations =  2.1

     total cpu time spent up to now is      395.7 secs

     total energy              =    -306.88262265 Ry
     estimated scf accuracy    <       0.01656541 Ry

     iteration # 14     ecut=   120.00 Ry     beta= 0.70
     Davidson diagonalization with overlap
     ethr =  1.95E-06,  avg # of iterations =  1.3

     total cpu time spent up to now is      402.9 secs

     total energy              =    -306.87240919 Ry
     estimated scf accuracy    <       0.01507488 Ry

     iteration # 15     ecut=   120.00 Ry     beta= 0.70
     Davidson diagonalization with overlap
     ethr =  1.95E-06,  avg # of iterations = 12.1

     total cpu time spent up to now is      426.1 secs

     total energy              =    -306.87715684 Ry
     estimated scf accuracy    <       0.00054117 Ry

     iteration # 16     ecut=   120.00 Ry     beta= 0.70
     Davidson diagonalization with overlap
     ethr =  1.95E-06,  avg # of iterations =  1.3

     total cpu time spent up to now is      433.3 secs

     total energy              =    -306.87691027 Ry
     estimated scf accuracy    <       0.00050131 Ry

     iteration # 17     ecut=   120.00 Ry     beta= 0.70
     Davidson diagonalization with overlap
     ethr =  1.95E-06,  avg # of iterations =  1.2

     total cpu time spent up to now is      440.5 secs

     total energy              =    -306.87686833 Ry
     estimated scf accuracy    <       0.00009943 Ry

     iteration # 18     ecut=   120.00 Ry     beta= 0.70
     Davidson diagonalization with overlap
     ethr =  4.52E-07,  avg # of iterations =  6.9

     total cpu time spent up to now is      452.9 secs

     total energy              =    -306.87697762 Ry
     estimated scf accuracy    <       0.00006566 Ry

     iteration # 19     ecut=   120.00 Ry     beta= 0.70
     Davidson diagonalization with overlap
     ethr =  2.98E-07,  avg # of iterations =  1.5

     total cpu time spent up to now is      460.3 secs

     total energy              =    -306.87695542 Ry
     estimated scf accuracy    <       0.00003967 Ry

     iteration # 20     ecut=   120.00 Ry     beta= 0.70
     Davidson diagonalization with overlap
     ethr =  1.80E-07,  avg # of iterations =  4.8

     total cpu time spent up to now is      470.5 secs

     total energy              =    -306.87696834 Ry
     estimated scf accuracy    <       0.00000052 Ry

     iteration # 21     ecut=   120.00 Ry     beta= 0.70
     Davidson diagonalization with overlap
     c_bands:  1 eigenvalues not converged
     ethr =  2.35E-09,  avg # of iterations = 14.4

     total cpu time spent up to now is      493.6 secs

     total energy              =    -306.87697190 Ry
     estimated scf accuracy    <       0.00000025 Ry

     iteration # 22     ecut=   120.00 Ry     beta= 0.70
     Davidson diagonalization with overlap
     ethr =  1.15E-09,  avg # of iterations =  7.9

     total cpu time spent up to now is      507.5 secs

     total energy              =    -306.87697181 Ry
     estimated scf accuracy    <       0.00000143 Ry

     iteration # 23     ecut=   120.00 Ry     beta= 0.70
     Davidson diagonalization with overlap
     ethr =  1.15E-09,  avg # of iterations =  5.8

     total cpu time spent up to now is      519.0 secs

     total energy              =    -306.87697195 Ry
     estimated scf accuracy    <       0.00000010 Ry

     iteration # 24     ecut=   120.00 Ry     beta= 0.70
     Davidson diagonalization with overlap
     ethr =  4.41E-10,  avg # of iterations =  3.1

     total cpu time spent up to now is      527.1 secs

     total energy              =    -306.87697195 Ry
     estimated scf accuracy    <       0.00000003 Ry

     iteration # 25     ecut=   120.00 Ry     beta= 0.70
     Davidson diagonalization with overlap
     ethr =  1.43E-10,  avg # of iterations =  6.4

     total cpu time spent up to now is      538.0 secs

     End of self-consistent calculation

          k = 0.0000 0.0000 0.0000 (  7499 PWs)   bands (ev):

   -39.7515 -39.6781 -18.8622 -18.4939 -18.4939 -18.4291 -18.4291 -18.4096
     4.0184   7.4267   9.6939  10.6997  10.6997  10.8345  11.1247

          k = 0.0000 0.0000 0.0793 (  7469 PWs)   bands (ev):

   -39.7487 -39.6809 -18.8456 -18.4914 -18.4914 -18.4315 -18.4315 -18.4275
     4.1227   7.2822   9.6494  10.6539  10.6539  10.7663  11.0656

          k = 0.0000 0.0000 0.1586 (  7451 PWs)   bands (ev):

   -39.7408 -39.6889 -18.7979 -18.4844 -18.4844 -18.4780 -18.4386 -18.4386
     4.4282   6.8510   9.6327  10.5756  10.5874  10.5874  10.9226

          k = 0.0000 0.0000 0.2379 (  7493 PWs)   bands (ev):

   -39.7290 -39.7009 -18.7260 -18.5529 -18.4739 -18.4739 -18.4491 -18.4491
     4.9124   6.2181   9.7600  10.3023  10.5745  10.5748  10.7616

          k = 0.0000 0.0000-0.3173 (  7438 PWs)   bands (ev):

   -39.7149 -39.7149 -18.6400 -18.6400 -18.4615 -18.4615 -18.4615 -18.4615
     5.5329   5.5329  10.0068  10.0068  10.6355  10.6355  10.6355

          k =-0.0000 0.0970 0.0000 (  7473 PWs)   bands (ev):

   -39.7478 -39.6766 -18.8525 -18.5138 -18.5005 -18.4499 -18.4318 -18.4138
     4.1732   7.5591   9.5576  10.4228  10.8130  10.9996  11.0637

          k =-0.0000 0.0970 0.0793 (  7470 PWs)   bands (ev):

   -39.7451 -39.6793 -18.8368 -18.5108 -18.4979 -18.4588 -18.4344 -18.4245
     4.2759   7.4145   9.5157  10.4181  10.7546  10.8715  10.9957

          k =-0.0000 0.0970 0.1586 (  7453 PWs)   bands (ev):

   -39.7374 -39.6871 -18.7921 -18.5031 -18.4958 -18.4905 -18.4427 -18.4419
     4.5769   6.9813   9.5142  10.4232  10.5890  10.6767  11.0024

          k =-0.0000 0.0970 0.2379 (  7452 PWs)   bands (ev):

   -39.7259 -39.6987 -18.7247 -18.5637 -18.4895 -18.4794 -18.4585 -18.4531
     5.0545   6.3483   9.6641  10.2630  10.4709  10.6608  10.7291

          k =-0.0000 0.0970-0.3173 (  7450 PWs)   bands (ev):

   -39.7123 -39.7123 -18.6444 -18.6444 -18.4743 -18.4743 -18.4662 -18.4662
     5.6679   5.6679   9.9354   9.9354  10.5764  10.5778  10.7220

          k =-0.0000 0.1941 0.0000 (  7493 PWs)   bands (ev):

   -39.7374 -39.6727 -18.8247 -18.5686 -18.5181 -18.5057 -18.4399 -18.4263
     4.6220   7.9125   9.2460   9.9948  10.7667  11.1415  11.1686

          k =-0.0000 0.1941 0.0793 (  7482 PWs)   bands (ev):

   -39.7350 -39.6752 -18.8125 -18.5640 -18.5165 -18.5152 -18.4428 -18.4331
     4.7195   7.7698   9.2152  10.0147  10.7577  10.9036  10.9806

          k =-0.0000 0.1941 0.1586 (  7474 PWs)   bands (ev):

   -39.7280 -39.6822 -18.7776 -18.5570 -18.5422 -18.5067 -18.4514 -18.4511
     5.0056   7.3333   9.2559  10.0726  10.5233  10.7680  10.8865

          k =-0.0000 0.1941 0.2379 (  7464 PWs)   bands (ev):

   -39.7175 -39.6928 -18.7253 -18.6022 -18.5269 -18.4941 -18.4753 -18.4641
     5.4605   6.7071   9.4521  10.0612  10.2997  10.6126  10.8803

          k =-0.0000 0.1941-0.3173 (  7478 PWs)   bands (ev):

   -39.7052 -39.7052 -18.6635 -18.6635 -18.5018 -18.5018 -18.4791 -18.4791
     6.0481   6.0481   9.7537   9.7537  10.4227  10.4227  10.9556

          k =-0.0000 0.2911 0.0000 (  7493 PWs)   bands (ev):

   -39.7226 -39.6680 -18.7829 -18.6441 -18.5797 -18.5413 -18.4516 -18.4471
     5.3163   8.3202   8.9098   9.5590  10.5454  10.8259  10.9143

          k =-0.0000 0.2911 0.0793 (  7489 PWs)   bands (ev):

   -39.7206 -39.6701 -18.7791 -18.6346 -18.5900 -18.5379 -18.4550 -18.4506
     5.4033   8.1862   8.9066   9.5908  10.5129  10.7692  10.9279

          k =-0.0000 0.2911 0.1586 (  7487 PWs)   bands (ev):

   -39.7147 -39.6760 -18.7660 -18.6304 -18.5956 -18.5283 -18.4648 -18.4630
     5.6587   7.7648   9.0120   9.6699  10.3583  10.6592  10.9796

          k =-0.0000 0.2911 0.2379 (  7496 PWs)   bands (ev):

   -39.7058 -39.6849 -18.7417 -18.6666 -18.5607 -18.5138 -18.4869 -18.4795
     6.0651   7.1858   9.2415   9.7085  10.1952  10.4817  11.0851

          k =-0.0000 0.2911-0.3173 (  7502 PWs)   bands (ev):

   -39.6954 -39.6954 -18.7070 -18.7070 -18.5211 -18.5211 -18.4966 -18.4966
     6.5911   6.5911   9.5216   9.5216  10.2746  10.2746  11.2453

          k =-0.0000 0.3881 0.0000 (  7479 PWs)   bands (ev):

   -39.7066 -39.6644 -18.7339 -18.7204 -18.6511 -18.5637 -18.4752 -18.4640
     6.1668   8.4686   8.6359   9.2259  10.5777  10.5790  10.6941

          k =-0.0000 0.3881 0.0793 (  7498 PWs)   bands (ev):

   -39.7050 -39.6661 -18.7622 -18.6870 -18.6565 -18.5600 -18.4749 -18.4678
     6.2340   8.3408   8.6945   9.2685  10.4218  10.6659  10.7456

          k =-0.0000 0.3881 0.1586 (  7502 PWs)   bands (ev):

   -39.7005 -39.6706 -18.7805 -18.7006 -18.6203 -18.5492 -18.4790 -18.4787
     6.4310   8.0152   8.8564   9.3595  10.2697  10.6141  10.8968

          k =-0.0000 0.3881 0.2379 (  7502 PWs)   bands (ev):

   -39.6936 -39.6775 -18.7809 -18.7347 -18.5697 -18.5331 -18.4951 -18.4950
     6.7427   7.5875   9.0882   9.4143  10.1797  10.4375  11.1367

          k =-0.0000 0.3881-0.3173 (  7512 PWs)   bands (ev):

   -39.6856 -39.6856 -18.7642 -18.7642 -18.5260 -18.5260 -18.5141 -18.5141
     7.1424   7.1424   9.3150   9.3150  10.2453  10.2453  11.4442

          k =-0.0000 0.4851 0.0000 (  7489 PWs)   bands (ev):

   -39.6933 -39.6634 -18.7765 -18.7021 -18.6883 -18.5798 -18.5053 -18.4733
     7.0208   8.2954   8.4620   8.9840  10.4096  10.5476  10.7996

          k =-0.0000 0.4851 0.0793 (  7497 PWs)   bands (ev):

   -39.6922 -39.6645 -18.7926 -18.7180 -18.6601 -18.5758 -18.5012 -18.4774
     7.0496   8.2052   8.5627   9.0113  10.4176  10.6123  10.7508

          k =-0.0000 0.4851 0.1586 (  7506 PWs)   bands (ev):

   -39.6889 -39.6678 -18.8137 -18.7501 -18.6109 -18.5643 -18.4965 -18.4890
     7.1397   8.0143   8.7642   9.1080  10.4072  10.6240  10.8028

          k =-0.0000 0.4851 0.2379 (  7501 PWs)   bands (ev):

   -39.6841 -39.6726 -18.8207 -18.7845 -18.5626 -18.5472 -18.5064 -18.5026
     7.2956   7.7660   9.0061   9.2230  10.3455  10.4739  11.1086

          k =-0.0000 0.4851-0.3173 (  7480 PWs)   bands (ev):

   -39.6784 -39.6784 -18.8102 -18.8102 -18.5268 -18.5268 -18.5248 -18.5248
     7.5120   7.5120   9.2011   9.2011  10.3511  10.3511  11.5095

          k = 0.0000-0.5822 0.0000 (  7500 PWs)   bands (ev):

   -39.6877 -39.6638 -18.7970 -18.7206 -18.6669 -18.5856 -18.5211 -18.4768
     7.5303   8.0644   8.4028   8.8712  10.3494  10.4966  10.9025

          k = 0.0000-0.5822 0.0793 (  7494 PWs)   bands (ev):

   -39.6868 -39.6647 -18.8098 -18.7350 -18.6454 -18.5815 -18.5149 -18.4809
     7.5020   8.0442   8.5256   8.8611  10.4106  10.5648  10.8278

          k = 0.0000-0.5822 0.1586 (  7514 PWs)   bands (ev):

   -39.6842 -39.6673 -18.8292 -18.7679 -18.6015 -18.5698 -18.5056 -18.4928
     7.4754   7.9539   8.8098   8.9023  10.5173  10.6396  10.7662

          k = 0.0000-0.5822 0.2379 (  7516 PWs)   bands (ev):

   -39.6803 -39.6711 -18.8368 -18.8025 -18.5572 -18.5523 -18.5106 -18.5065
     7.5136   7.7931   9.0427   9.0919  10.4525  10.5282  11.0907

          k = 0.0000-0.5822-0.3173 (  7488 PWs)   bands (ev):

   -39.6757 -39.6757 -18.8276 -18.8276 -18.5315 -18.5315 -18.5238 -18.5238
     7.6277   7.6277   9.1721   9.1721  10.4335  10.4335  11.5189

          k = 0.0840 0.1455 0.0000 (  7485 PWs)   bands (ev):

   -39.7407 -39.6739 -18.8337 -18.5472 -18.5214 -18.4806 -18.4400 -18.4221
     4.4753   7.8044   9.3392  10.1106  10.8481  11.0502  11.1187

          k = 0.0840 0.1455 0.0793 (  7492 PWs)   bands (ev):

   -39.7382 -39.6765 -18.8203 -18.5432 -18.5207 -18.4896 -18.4428 -18.4294
     4.5746   7.6607   9.3039  10.1259  10.8574  10.8707  10.9373

          k = 0.0840 0.1455 0.1586 (  7477 PWs)   bands (ev):

   -39.7310 -39.6838 -18.7819 -18.5360 -18.5315 -18.5010 -18.4509 -18.4468
     4.8660   7.2243   9.3305  10.1750  10.5507  10.7930  10.8427

          k = 0.0840 0.1455 0.2379 (  7455 PWs)   bands (ev):

   -39.7202 -39.6946 -18.7242 -18.5885 -18.5141 -18.4934 -18.4674 -18.4628
     5.3291   6.5940   9.5144  10.1418  10.3321  10.6403  10.8261

          k = 0.0840 0.1455-0.3173 (  7456 PWs)   bands (ev):

   -39.7074 -39.7074 -18.6559 -18.6559 -18.4944 -18.4944 -18.4753 -18.4753
     5.9263   5.9263   9.8119   9.8119  10.4628  10.4629  10.8843

          k = 0.0840 0.2426 0.0000 (  7495 PWs)   bands (ev):

   -39.7282 -39.6696 -18.7989 -18.6073 -18.5702 -18.5182 -18.4539 -18.4389
     5.0491   8.2056   9.0349   9.6854  10.6151  10.8105  11.1129

          k = 0.0840 0.2426 0.0793 (  7500 PWs)   bands (ev):

   -39.7259 -39.6719 -18.7909 -18.6007 -18.5746 -18.5219 -18.4574 -18.4424
     5.1408   8.0669   9.0160   9.7140  10.6216  10.7376  11.0320

          k = 0.0840 0.2426 0.1586 (  7480 PWs)   bands (ev):

   -39.7196 -39.6782 -18.7676 -18.6020 -18.5751 -18.5230 -18.4671 -18.4543
     5.4101   7.6312   9.0948   9.7920  10.4324  10.6636  10.9785

          k = 0.0840 0.2426 0.2379 (  7471 PWs)   bands (ev):

   -39.7102 -39.6878 -18.7316 -18.6404 -18.5476 -18.5154 -18.4817 -18.4739
     5.8389   7.0224   9.3174   9.8374  10.2132  10.4951  11.0331

          k = 0.0840 0.2426-0.3173 (  7482 PWs)   bands (ev):

   -39.6990 -39.6990 -18.6870 -18.6870 -18.5188 -18.5188 -18.4897 -18.4897
     6.3943   6.3943   9.6151   9.6151  10.2910  10.2910  11.1437

          k = 0.0840 0.3396 0.0000 (  7496 PWs)   bands (ev):

   -39.7127 -39.6656 -18.7531 -18.6818 -18.6293 -18.5530 -18.4688 -18.4637
     5.8293   8.5198   8.7543   9.3039  10.5145  10.5509  10.8657

          k = 0.0840 0.3396 0.0793 (  7492 PWs)   bands (ev):

   -39.7109 -39.6674 -18.7605 -18.6669 -18.6332 -18.5530 -18.4743 -18.4621
     5.9069   8.3875   8.7823   9.3431  10.4105  10.6329  10.8445

          k = 0.0840 0.3396 0.1586 (  7486 PWs)   bands (ev):

   -39.7058 -39.6725 -18.7663 -18.6732 -18.6111 -18.5478 -18.4860 -18.4659
     6.1343   7.9987   8.9272   9.4367  10.2616  10.5833  10.9142

          k = 0.0840 0.3396 0.2379 (  7489 PWs)   bands (ev):

   -39.6982 -39.6801 -18.7586 -18.7052 -18.5692 -18.5356 -18.5014 -18.4807
     6.4954   7.4861   9.1599   9.5118  10.1241  10.3808  11.1116

          k = 0.0840 0.3396-0.3173 (  7494 PWs)   bands (ev):

   -39.6892 -39.6892 -18.7368 -18.7368 -18.5366 -18.5366 -18.5021 -18.5021
     6.9612   6.9612   9.4052   9.4052  10.1726  10.1726  11.3581

          k = 0.0840 0.4366 0.0000 (  7489 PWs)   bands (ev):

   -39.6978 -39.6635 -18.7478 -18.7044 -18.6810 -18.5799 -18.4941 -18.4817
     6.7008   8.4797   8.5507   9.0469  10.3852  10.6255  10.6928

          k = 0.0840 0.4366 0.0793 (  7489 PWs)   bands (ev):

   -39.6965 -39.6648 -18.7697 -18.7020 -18.6637 -18.5771 -18.4950 -18.4813
     6.7521   8.3575   8.6391   9.0986  10.3365  10.6152  10.7270

          k = 0.0840 0.4366 0.1586 (  7505 PWs)   bands (ev):

   -39.6928 -39.6685 -18.7920 -18.7287 -18.6176 -18.5657 -18.5045 -18.4799
     6.9026   8.1086   8.8137   9.2152  10.2325  10.5126  10.8743

          k = 0.0840 0.4366 0.2379 (  7496 PWs)   bands (ev):

   -39.6872 -39.6741 -18.7981 -18.7612 -18.5776 -18.5451 -18.5189 -18.4871
     7.1413   7.7863   9.0490   9.3128  10.1425  10.3222  11.1318

          k = 0.0840 0.4366-0.3173 (  7494 PWs)   bands (ev):

   -39.6806 -39.6806 -18.7868 -18.7868 -18.5503 -18.5503 -18.5069 -18.5069
     7.4474   7.4474   9.2611   9.2611  10.1611  10.1611  11.4693

          k = 0.0840 0.5337 0.0000 (  7483 PWs)   bands (ev):

   -39.6878 -39.6637 -18.7859 -18.7110 -18.6673 -18.5947 -18.5207 -18.4892
     7.4566   8.2285   8.4454   8.8663  10.3283  10.4584  10.8968

          k = 0.0840 0.5337 0.0793 (  7496 PWs)   bands (ev):

   -39.6868 -39.6646 -18.7986 -18.7260 -18.6476 -18.5886 -18.5169 -18.4907
     7.4558   8.1798   8.5560   8.8835  10.3474  10.4694  10.8789

          k = 0.0840 0.5337 0.1586 (  7499 PWs)   bands (ev):

   -39.6842 -39.6672 -18.8180 -18.7587 -18.6129 -18.5683 -18.5194 -18.4902
     7.4775   8.0578   8.7884   8.9875  10.3486  10.4218  10.9421

          k = 0.0840 0.5337 0.2379 (  7511 PWs)   bands (ev):

   -39.6803 -39.6711 -18.8260 -18.7928 -18.5838 -18.5407 -18.5313 -18.4922
     7.5550   7.8789   9.0351   9.1729  10.2289  10.3212  11.1889

          k = 0.0840 0.5337-0.3173 (  7510 PWs)   bands (ev):

   -39.6757 -39.6757 -18.8172 -18.8172 -18.5587 -18.5587 -18.5073 -18.5073
     7.6958   7.6958   9.2150   9.2150  10.2020  10.2020  11.5520

          k = 0.1681 0.2911 0.0000 (  7511 PWs)   bands (ev):

   -39.7148 -39.6660 -18.7598 -18.6486 -18.6405 -18.5402 -18.4795 -18.4598
     5.7146   8.5625   8.8138   9.3026  10.5009  10.5031  10.9596

          k = 0.1681 0.2911 0.0793 (  7508 PWs)   bands (ev):

   -39.7130 -39.6679 -18.7617 -18.6451 -18.6340 -18.5462 -18.4829 -18.4587
     5.7957   8.4264   8.8276   9.3376  10.4514  10.5536  10.9007

          k = 0.1681 0.2911 0.1586 (  7492 PWs)   bands (ev):

   -39.7077 -39.6732 -18.7605 -18.6624 -18.5996 -18.5526 -18.4920 -18.4620
     6.0336   8.0067   8.9653   9.4344  10.3013  10.5425  10.8887

          k = 0.1681 0.2911 0.2379 (  7481 PWs)   bands (ev):

   -39.6998 -39.6811 -18.7481 -18.6920 -18.5617 -18.5491 -18.5024 -18.4764
     6.4121   7.4580   9.1990   9.5366  10.1148  10.3360  11.0688

          k = 0.1681 0.2911-0.3173 (  7474 PWs)   bands (ev):

   -39.6905 -39.6905 -18.7237 -18.7237 -18.5434 -18.5434 -18.4979 -18.4979
     6.9023   6.9023   9.4504   9.4504  10.1252  10.1252  11.3005

          k = 0.1681 0.3881 0.0000 (  7505 PWs)   bands (ev):

   -39.7003 -39.6636 -18.7132 -18.7099 -18.6775 -18.5758 -18.5039 -18.4882
     6.5366   8.6428   8.7126   9.0023  10.2852  10.5966  10.7135

          k = 0.1681 0.3881 0.0793 (  7496 PWs)   bands (ev):

   -39.6989 -39.6650 -18.7448 -18.7003 -18.6519 -18.5813 -18.5086 -18.4815
     6.6000   8.5271   8.7725   9.0499  10.2506  10.6176  10.6606

          k = 0.1681 0.3881 0.1586 (  7497 PWs)   bands (ev):

   -39.6949 -39.6690 -18.7675 -18.7158 -18.6097 -18.5823 -18.5182 -18.4747
     6.7853   8.2430   8.9226   9.1641  10.1550  10.4249  10.7914

          k = 0.1681 0.3881 0.2379 (  7490 PWs)   bands (ev):

   -39.6890 -39.6749 -18.7735 -18.7409 -18.5873 -18.5660 -18.5204 -18.4798
     7.0776   7.8589   9.1333   9.2955  10.0237  10.1721  11.0283

          k = 0.1681 0.3881-0.3173 (  7480 PWs)   bands (ev):

   -39.6820 -39.6820 -18.7632 -18.7632 -18.5718 -18.5718 -18.4989 -18.4989
     7.4497   7.4497   9.3106   9.3106   9.9916   9.9916  11.3466

          k = 0.1681 0.4851 0.0000 (  7495 PWs)   bands (ev):

   -39.6879 -39.6636 -18.7570 -18.6947 -18.6680 -18.6104 -18.5202 -18.5199
     7.3661   8.5318   8.5406   8.8451  10.2044  10.4565  10.8623

          k = 0.1681 0.4851 0.0793 (  7497 PWs)   bands (ev):

   -39.6869 -39.6646 -18.7690 -18.7138 -18.6472 -18.6047 -18.5306 -18.5047
     7.3991   8.4339   8.6349   8.9171  10.1794  10.3912  10.8782

          k = 0.1681 0.4851 0.1586 (  7500 PWs)   bands (ev):

   -39.6843 -39.6672 -18.7890 -18.7424 -18.6316 -18.5769 -18.5401 -18.4893
     7.4972   8.2795   8.8051   9.0841  10.0933  10.2116  10.9624

          k = 0.1681 0.4851 0.2379 (  7496 PWs)   bands (ev):

   -39.6804 -39.6711 -18.7989 -18.7719 -18.6151 -18.5742 -18.5233 -18.4850
     7.6550   8.0781   9.0471   9.2628   9.9589   9.9746  11.1513

          k = 0.1681 0.4851-0.3173 (  7494 PWs)   bands (ev):

   -39.6757 -39.6757 -18.7928 -18.7928 -18.5942 -18.5942 -18.4970 -18.4970
     7.8579   7.8579   9.2727   9.2727   9.8584   9.8584  11.4436

          k = 0.1681 0.5822 0.0000 (  7499 PWs)   bands (ev):

   -39.6823 -39.6647 -18.7740 -18.6991 -18.6451 -18.6253 -18.5380 -18.5260
     7.8627   8.3236   8.5072   8.7508  10.2643  10.2733  10.9945

          k = 0.1681 0.5822 0.0793 (  7497 PWs)   bands (ev):

   -39.6816 -39.6653 -18.7835 -18.7148 -18.6503 -18.5997 -18.5439 -18.5148
     7.8471   8.3131   8.6104   8.7791  10.2288  10.2389  11.0050

          k = 0.1681 0.5822 0.1586 (  7497 PWs)   bands (ev):

   -39.6797 -39.6672 -18.8007 -18.7486 -18.6434 -18.5584 -18.5582 -18.4968
     7.8431   8.2518   8.8632   8.8962  10.1062  10.1233  11.0794

          k = 0.1681 0.5822 0.2379 (  7505 PWs)   bands (ev):

   -39.6768 -39.6701 -18.8099 -18.7818 -18.6257 -18.5788 -18.5208 -18.4882
     7.8929   8.1321   9.1098   9.1670   9.8816   9.9474  11.2602

          k = 0.1681 0.5822-0.3173 (  7522 PWs)   bands (ev):

   -39.6734 -39.6734 -18.8037 -18.8037 -18.6026 -18.6026 -18.4960 -18.4960
     7.9978   7.9978   9.3082   9.3082   9.7674   9.7674  11.5376

          k = 0.2521 0.4366 0.0000 (  7495 PWs)   bands (ev):

   -39.6879 -39.6636 -18.7322 -18.6987 -18.6684 -18.6093 -18.5430 -18.5196
     7.3338   8.5948   8.7364   8.7825  10.1234  10.4695  10.8283

          k = 0.2521 0.4366 0.0793 (  7505 PWs)   bands (ev):

   -39.6870 -39.6645 -18.7344 -18.7310 -18.6313 -18.6210 -18.5457 -18.5073
     7.3800   8.5333   8.7748   8.8629  10.1087  10.3612  10.8368

          k = 0.2521 0.4366 0.1586 (  7497 PWs)   bands (ev):

   -39.6843 -39.6671 -18.7628 -18.7448 -18.6335 -18.5940 -18.5456 -18.4893
     7.5129   8.3994   8.8888   9.0308  10.0438  10.1085  10.8900

          k = 0.2521 0.4366 0.2379 (  7491 PWs)   bands (ev):

   -39.6804 -39.6711 -18.7788 -18.7632 -18.6291 -18.5952 -18.5201 -18.4830
     7.7160   8.2020   9.0672   9.2168   9.8396   9.9053  11.0489

          k = 0.2521 0.4366-0.3173 (  7504 PWs)   bands (ev):

   -39.6757 -39.6757 -18.7777 -18.7777 -18.6129 -18.6129 -18.4939 -18.4939
     7.9597   7.9597   9.2477   9.2477   9.7571   9.7571  11.3412

          k = 0.2521 0.5337 0.0000 (  7503 PWs)   bands (ev):

   -39.6784 -39.6659 -18.7489 -18.6863 -18.6473 -18.6283 -18.5676 -18.5519
     8.0227   8.5592   8.5875   8.6806  10.1003  10.2391  11.0588

          k = 0.2521 0.5337 0.0793 (  7503 PWs)   bands (ev):

   -39.6779 -39.6664 -18.7524 -18.7079 -18.6650 -18.5990 -18.5728 -18.5328
     8.0485   8.5254   8.6341   8.7681  10.0612  10.1409  11.0614

          k = 0.2521 0.5337 0.1586 (  7492 PWs)   bands (ev):

   -39.6766 -39.6677 -18.7665 -18.7382 -18.6758 -18.5967 -18.5462 -18.5054
     8.1207   8.4818   8.7674   8.9588   9.8885   9.9442  11.0938

          k = 0.2521 0.5337 0.2379 (  7501 PWs)   bands (ev):

   -39.6745 -39.6697 -18.7805 -18.7652 -18.6644 -18.6176 -18.5110 -18.4891
     8.2236   8.4223   8.9834   9.2074   9.5789   9.7395  11.2075

          k = 0.2521 0.5337-0.3173 (  7500 PWs)   bands (ev):

   -39.6721 -39.6721 -18.7808 -18.7808 -18.6421 -18.6421 -18.4907 -18.4907
     8.3329   8.3329   9.2624   9.2624   9.4823   9.4823  11.4427

          k = 0.3361 0.5822 0.0000 (  7497 PWs)   bands (ev):

   -39.6708 -39.6708 -18.7389 -18.6704 -18.6704 -18.5954 -18.5887 -18.5887
     8.4663   8.4663   8.5660   8.6202  10.1020  10.1020  11.1569

          k = 0.3361 0.5822 0.0793 (  7488 PWs)   bands (ev):

   -39.6708 -39.6708 -18.7335 -18.6949 -18.6949 -18.6009 -18.5639 -18.5639
     8.5125   8.5125   8.5851   8.6415  10.0232  10.0232  11.1542

          k = 0.3361 0.5822 0.1586 (  7476 PWs)   bands (ev):

   -39.6708 -39.6708 -18.7321 -18.7321 -18.7181 -18.6166 -18.5259 -18.5259
     8.6354   8.6439   8.6439   8.6913   9.8199   9.8199  11.1681

          k = 0.3361 0.5822 0.2379 (  7485 PWs)   bands (ev):

   -39.6708 -39.6708 -18.7589 -18.7589 -18.6950 -18.6401 -18.4984 -18.4984
     8.6963   8.7346   8.8319   8.8319   9.5681   9.5681  11.2532

          k = 0.3361 0.5822-0.3173 (  7512 PWs)   bands (ev):

   -39.6708 -39.6708 -18.7684 -18.7684 -18.6676 -18.6676 -18.4885 -18.4885
     8.7376   8.7376   8.9598   8.9598   9.4157   9.4157  11.4621

     the Fermi energy is     9.1296 ev

!    total energy              =    -306.87697197 Ry
     total all-electron energy =     -3050.017743 Ry
     estimated scf accuracy    <          2.9E-11 Ry
     smearing contrib. (-TS)   =      -0.00101267 Ry
     internal energy E=F+TS    =    -306.87595931 Ry

     The total energy is F=E-TS. E is the sum of the following terms:
     one-electron contribution =     -72.61573341 Ry
     hartree contribution      =      41.70881559 Ry
     xc contribution           =     -34.56405447 Ry
     ewald contribution        =    -127.64805277 Ry
     one-center paw contrib.   =    -113.75693425 Ry

     convergence has been achieved in  25 iterations

     Forces acting on atoms (cartesian axes, Ry/au):

     atom    1 type  1   force =     0.00000000   -0.00000000    0.00000000
     atom    2 type  1   force =     0.00000000    0.00000000    0.00000000
     The non-local contrib.  to forces
     atom    1 type  1   force =     0.00000000   -0.00000000    0.00000000
     atom    2 type  1   force =    -0.00000000    0.00000000    0.00000000
     The ionic contribution  to forces
     atom    1 type  1   force =     0.00000000   -0.00000000    0.00000000
     atom    2 type  1   force =    -0.00000000    0.00000000    0.00000000
     The local contribution  to forces
     atom    1 type  1   force =     0.00000000    0.00000000    0.00000000
     atom    2 type  1   force =    -0.00000000    0.00000000    0.00000000
     The core correction contribution to forces
     atom    1 type  1   force =     0.00000000    0.00000000    0.00000000
     atom    2 type  1   force =     0.00000000   -0.00000000   -0.00000000
     The Hubbard contrib.    to forces
     atom    1 type  1   force =     0.00000000    0.00000000    0.00000000
     atom    2 type  1   force =     0.00000000    0.00000000    0.00000000
     The SCF correction term to forces
     atom    1 type  1   force =    -0.00000000   -0.00000000    0.00000000
     atom    2 type  1   force =     0.00000000    0.00000000    0.00000000

     Total force =     0.000000     Total SCF correction =     0.000000


     Computing stress (Cartesian axis) and pressure

          total   stress  (Ry/bohr**3)                   (kbar)     P=      -42.10
  -0.00024698  -0.00000000   0.00000000          -36.33       -0.00        0.00
  -0.00000000  -0.00024698  -0.00000000           -0.00      -36.33       -0.00
  -0.00000000   0.00000000  -0.00036452           -0.00        0.00      -53.62

     Energy error            =      3.1E-03 Ry
     Gradient error          =      9.4E-28 Ry/Bohr
     Cell gradient error     =      5.4E+01 kbar

     number of scf cycles    =   2
     number of bfgs steps    =   1

     enthalpy           old  =    -306.8738242407 Ry
     enthalpy           new  =    -306.8769719745 Ry

     CASE: enthalpy          _new < enthalpy          _old

     new trust radius        =       0.0620889747 bohr
     new conv_thr            =            1.0E-10 Ry

     new unit-cell volume =    315.18164 a.u.^3 (    46.70510 Ang^3 )
     density =      3.17111 g/cm^3

CELL_PARAMETERS (alat=  6.25310370)
   0.980273858   0.000000000   0.000000000
  -0.490136929   0.848942064   0.000000000
   0.000000000  -0.000000000   1.548989737

ATOMIC_POSITIONS (crystal)
Sc            0.0000000000       -0.0000000000        0.0000000000
Sc            0.6666666667        0.3333333333        0.5000000000



     Writing config-only to output data dir sc_vcrelax.out/scandium.save/
     NEW-OLD atomic charge density approx. for the potential

     Check: negative core charge=   -0.000002
     extrapolated charge   21.09070, renormalised to   22.00000

     total cpu time spent up to now is      548.1 secs

     Self-consistent Calculation

     iteration #  1     ecut=   120.00 Ry     beta= 0.70
     Davidson diagonalization with overlap
     c_bands:  3 eigenvalues not converged
     c_bands:  2 eigenvalues not converged
     c_bands:  2 eigenvalues not converged
     c_bands:  2 eigenvalues not converged
     c_bands:  1 eigenvalues not converged
     c_bands:  1 eigenvalues not converged
     c_bands:  3 eigenvalues not converged
     c_bands:  4 eigenvalues not converged
     c_bands:  3 eigenvalues not converged
     c_bands:  2 eigenvalues not converged
     c_bands:  1 eigenvalues not converged
     c_bands:  4 eigenvalues not converged
     c_bands:  3 eigenvalues not converged
     c_bands:  4 eigenvalues not converged
     c_bands:  1 eigenvalues not converged
     c_bands:  5 eigenvalues not converged
     c_bands:  5 eigenvalues not converged
     c_bands:  3 eigenvalues not converged
     c_bands:  4 eigenvalues not converged
     c_bands:  4 eigenvalues not converged
     c_bands:  2 eigenvalues not converged
     c_bands:  4 eigenvalues not converged
     c_bands:  5 eigenvalues not converged
     c_bands:  5 eigenvalues not converged
     c_bands:  4 eigenvalues not converged
     c_bands:  3 eigenvalues not converged
     c_bands:  3 eigenvalues not converged
     c_bands:  3 eigenvalues not converged
     c_bands:  2 eigenvalues not converged
     c_bands:  3 eigenvalues not converged
     c_bands:  5 eigenvalues not converged
     c_bands:  4 eigenvalues not converged
     c_bands:  4 eigenvalues not converged
     c_bands:  1 eigenvalues not converged
     c_bands:  2 eigenvalues not converged
     c_bands:  3 eigenvalues not converged
     c_bands:  3 eigenvalues not converged
     c_bands:  4 eigenvalues not converged
     c_bands:  3 eigenvalues not converged
     c_bands:  3 eigenvalues not converged
     c_bands:  5 eigenvalues not converged
     c_bands:  3 eigenvalues not converged
     c_bands:  4 eigenvalues not converged
     c_bands:  4 eigenvalues not converged
     c_bands:  1 eigenvalues not converged
     c_bands:  3 eigenvalues not converged
     c_bands:  4 eigenvalues not converged
     c_bands:  5 eigenvalues not converged
     c_bands:  3 eigenvalues not converged
     c_bands:  4 eigenvalues not converged
     c_bands:  3 eigenvalues not converged
     c_bands:  2 eigenvalues not converged
     c_bands:  4 eigenvalues not converged
     c_bands:  5 eigenvalues not converged
     c_bands:  4 eigenvalues not converged
     ethr =  1.00E-06,  avg # of iterations = 23.0

     total cpu time spent up to now is      595.2 secs

     total energy              =    -306.64497241 Ry
     estimated scf accuracy    <       0.17061748 Ry

     iteration #  2     ecut=   120.00 Ry     beta= 0.70
     Davidson diagonalization with overlap
     ethr =  7.76E-04,  avg # of iterations =  7.0

     total cpu time spent up to now is      610.9 secs

     total energy              =    -306.88638884 Ry
     estimated scf accuracy    <       0.26964388 Ry

     iteration #  3     ecut=   120.00 Ry     beta= 0.70
     Davidson diagonalization with overlap
     ethr =  7.76E-04,  avg # of iterations =  1.1

     total cpu time spent up to now is      618.2 secs

     total energy              =    -306.87507134 Ry
     estimated scf accuracy    <       0.08143376 Ry

     iteration #  4     ecut=   120.00 Ry     beta= 0.70
     Davidson diagonalization with overlap
     ethr =  3.70E-04,  avg # of iterations =  2.8

     total cpu time spent up to now is      626.4 secs

     total energy              =    -306.87345059 Ry
     estimated scf accuracy    <       0.03474064 Ry

     iteration #  5     ecut=   120.00 Ry     beta= 0.70
     Davidson diagonalization with overlap
     ethr =  1.58E-04,  avg # of iterations =  2.7

     total cpu time spent up to now is      634.5 secs

     total energy              =    -306.87739385 Ry
     estimated scf accuracy    <       0.01612474 Ry

     iteration #  6     ecut=   120.00 Ry     beta= 0.70
     Davidson diagonalization with overlap
     ethr =  7.33E-05,  avg # of iterations =  4.3

     total cpu time spent up to now is      643.4 secs

     total energy              =    -306.88272910 Ry
     estimated scf accuracy    <       0.01070995 Ry

     iteration #  7     ecut=   120.00 Ry     beta= 0.70
     Davidson diagonalization with overlap
     ethr =  4.87E-05,  avg # of iterations =  2.1

     total cpu time spent up to now is      651.2 secs

     total energy              =    -306.88675124 Ry
     estimated scf accuracy    <       0.01288060 Ry

     iteration #  8     ecut=   120.00 Ry     beta= 0.70
     Davidson diagonalization with overlap
[...]
     7.1089   9.2151   9.5608  10.1473  11.4963  11.6469  11.7964

          k = 0.0000 0.3946 0.1658 (  6731 PWs)   bands (ev):

   -38.5762 -38.5303 -17.7353 -17.6156 -17.5085 -17.4342 -17.3310 -17.3232
     7.3134   8.9348   9.7013  10.2581  11.3200  11.7336  11.8183

          k = 0.0000 0.3946 0.2488 (  6735 PWs)   bands (ev):

   -38.5657 -38.5409 -17.7348 -17.6665 -17.4398 -17.4107 -17.3549 -17.3411
     7.6367   8.5072   9.9653  10.3354  11.2119  11.5173  12.0910

          k = 0.0000 0.3946-0.3317 (  6752 PWs)   bands (ev):

   -38.5533 -38.5533 -17.7101 -17.7101 -17.3829 -17.3829 -17.3810 -17.3810
     8.0501   8.0501  10.2304  10.2304  11.2848  11.2848  12.4425

          k = 0.0000 0.4933 0.0000 (  6706 PWs)   bands (ev):

   -38.5673 -38.5213 -17.7067 -17.6187 -17.5984 -17.4752 -17.3686 -17.3196
     7.8921   9.0821   9.3259   9.8764  11.4281  11.5228  11.9632

          k = 0.0000 0.4933 0.0829 (  6724 PWs)   bands (ev):

   -38.5655 -38.5230 -17.7359 -17.6260 -17.5705 -17.4693 -17.3594 -17.3256
     7.9137   9.0257   9.4154   9.9040  11.5022  11.5294  11.9046

          k = 0.0000 0.4933 0.1658 (  6746 PWs)   bands (ev):

   -38.5606 -38.5280 -17.7692 -17.6748 -17.4995 -17.4527 -17.3469 -17.3426
     7.9891   8.8607   9.6296  10.0236  11.5059  11.7206  11.7545

          k = 0.0000 0.4933 0.2488 (  6738 PWs)   bands (ev):

   -38.5531 -38.5355 -17.7799 -17.7265 -17.4314 -17.4276 -17.3681 -17.3510
     8.1350   8.6125   9.9077  10.1769  11.4132  11.5803  12.0716

          k = 0.0000 0.4933-0.3317 (  6750 PWs)   bands (ev):

   -38.5443 -38.5443 -17.7646 -17.7646 -17.3980 -17.3980 -17.3795 -17.3795
     8.3516   8.3516  10.1482  10.1482  11.4236  11.4236  12.5328

          k =-0.0000-0.5919-0.0000 (  6724 PWs)   bands (ev):

   -38.5594 -38.5226 -17.7315 -17.6202 -17.5899 -17.4824 -17.3907 -17.3233
     8.3849   8.8612   9.2435   9.7750  11.3723  11.4741  12.0820

          k =-0.0000-0.5919 0.0829 (  6732 PWs)   bands (ev):

   -38.5580 -38.5240 -17.7543 -17.6441 -17.5549 -17.4764 -17.3782 -17.3295
     8.3361   8.8538   9.4003   9.7508  11.4507  11.5434  11.9896

          k =-0.0000-0.5919 0.1658 (  6744 PWs)   bands (ev):

   -38.5540 -38.5280 -17.7859 -17.6959 -17.4887 -17.4594 -17.3591 -17.3469
     8.2835   8.7817   9.7462   9.7779  11.6627  11.6822  11.7572

          k =-0.0000-0.5919 0.2488 (  6722 PWs)   bands (ev):

   -38.5480 -38.5339 -17.7982 -17.7482 -17.4338 -17.4250 -17.3730 -17.3562
     8.3130   8.6158   9.9451  10.0719  11.5311  11.6651  12.0558

          k =-0.0000-0.5919-0.3317 (  6752 PWs)   bands (ev):

   -38.5410 -38.5410 -17.7850 -17.7850 -17.4035 -17.4035 -17.3784 -17.3784
     8.4349   8.4349  10.1297  10.1297  11.5300  11.5300  12.5505

          k = 0.0854 0.1480 0.0000 (  6771 PWs)   bands (ev):

   -38.6318 -38.5291 -17.8115 -17.4312 -17.4009 -17.3363 -17.2844 -17.2492
     5.2904   8.6602  10.5248  11.0392  11.9146  12.0633  12.0800

          k = 0.0854 0.1480 0.0829 (  6774 PWs)   bands (ev):

   -38.6279 -38.5330 -17.7936 -17.4251 -17.3985 -17.3501 -17.2886 -17.2592
     5.4006   8.5602  10.4204  11.0506  11.8907  11.9211  11.9539

          k = 0.0854 0.1480 0.1658 (  6750 PWs)   bands (ev):

   -38.6169 -38.5442 -17.7422 -17.4121 -17.4078 -17.3725 -17.3005 -17.2838
     5.7230   8.1959  10.3331  11.0893  11.6236  11.7631  11.8950

          k = 0.0854 0.1480 0.2488 (  6749 PWs)   bands (ev):

   -38.6003 -38.5610 -17.6648 -17.4822 -17.3818 -17.3612 -17.3181 -17.3145
     6.2314   7.5795  10.4688  11.0713  11.3779  11.6650  11.7798

          k = 0.0854 0.1480-0.3317 (  6752 PWs)   bands (ev):

   -38.5807 -38.5807 -17.5731 -17.5731 -17.3531 -17.3531 -17.3359 -17.3359
     6.8777   6.8777  10.7691  10.7691  11.4745  11.4747  11.8351

          k = 0.0854 0.2466 0.0000 (  6758 PWs)   bands (ev):

   -38.6149 -38.5249 -17.7657 -17.5026 -17.4543 -17.3878 -17.2997 -17.2737
     5.8899   9.0540  10.1092  10.5670  11.6955  11.7679  12.1016

          k = 0.0854 0.2466 0.0829 (  6754 PWs)   bands (ev):

   -38.6115 -38.5284 -17.7553 -17.4931 -17.4581 -17.3964 -17.3048 -17.2771
     5.9905   8.9736  10.0202  10.5974  11.6610  11.7810  11.9981

          k = 0.0854 0.2466 0.1658 (  6752 PWs)   bands (ev):

   -38.6018 -38.5382 -17.7248 -17.4955 -17.4559 -17.4005 -17.3187 -17.2915
     6.2852   8.6171  10.0012  10.6801  11.4609  11.7611  11.9163

          k = 0.0854 0.2466 0.2488 (  6750 PWs)   bands (ev):

   -38.5873 -38.5528 -17.6767 -17.5505 -17.4166 -17.3874 -17.3386 -17.3196
     6.7515   8.0112  10.2066  10.7317  11.2452  11.5534  11.9836

          k = 0.0854 0.2466-0.3317 (  6748 PWs)   bands (ev):

   -38.5701 -38.5701 -17.6158 -17.6158 -17.3796 -17.3796 -17.3497 -17.3497
     7.3492   7.3492  10.5190  10.5190  11.3180  11.3180  12.1116

          k = 0.0854 0.3453 0.0000 (  6742 PWs)   bands (ev):

   -38.5940 -38.5215 -17.7051 -17.5925 -17.5183 -17.4364 -17.3161 -17.3095
     6.6965   9.3411   9.7222  10.1621  11.5156  11.6270  11.8655

          k = 0.0854 0.3453 0.0829 (  6740 PWs)   bands (ev):

   -38.5912 -38.5242 -17.7140 -17.5730 -17.5240 -17.4384 -17.3235 -17.3052
     6.7794   9.2914   9.6729  10.2086  11.4314  11.7035  11.8279

          k = 0.0854 0.3453 0.1658 (  6744 PWs)   bands (ev):

   -38.5834 -38.5321 -17.7209 -17.5832 -17.4964 -17.4315 -17.3399 -17.3069
     7.0220   8.9624   9.7730  10.3175  11.2806  11.6789  11.8636

          k = 0.0854 0.3453 0.2488 (  6733 PWs)   bands (ev):

   -38.5717 -38.5439 -17.7093 -17.6310 -17.4418 -17.4101 -17.3617 -17.3255
     7.4055   8.4440  10.0290  10.4115  11.1365  11.4358  12.0817

          k = 0.0854 0.3453-0.3317 (  6730 PWs)   bands (ev):

   -38.5578 -38.5578 -17.6775 -17.6775 -17.4038 -17.4038 -17.3586 -17.3586
     7.8968   7.8968  10.3047  10.3047  11.1914  11.1914  12.3552

          k = 0.0854 0.4439 0.0000 (  6736 PWs)   bands (ev):

   -38.5735 -38.5207 -17.6723 -17.6403 -17.5757 -17.4729 -17.3527 -17.3301
     7.5803   9.2732   9.4356   9.9187  11.3635  11.6329  11.8389

          k = 0.0854 0.4439 0.0829 (  6733 PWs)   bands (ev):

   -38.5715 -38.5227 -17.7120 -17.6144 -17.5671 -17.4696 -17.3499 -17.3307
     7.6303   9.2126   9.4751   9.9796  11.3545  11.6040  11.8445

          k = 0.0854 0.4439 0.1658 (  6740 PWs)   bands (ev):

   -38.5658 -38.5285 -17.7453 -17.6505 -17.5085 -17.4514 -17.3613 -17.3260
     7.7783   8.9897   9.6561  10.1230  11.2707  11.5600  11.8905

          k = 0.0854 0.4439 0.2488 (  6735 PWs)   bands (ev):

   -38.5572 -38.5370 -17.7539 -17.6991 -17.4589 -17.4154 -17.3820 -17.3330
     8.0162   8.6686   9.9347  10.2524  11.1657  11.3696  12.1321

          k = 0.0854 0.4439-0.3317 (  6726 PWs)   bands (ev):

   -38.5471 -38.5471 -17.7370 -17.7370 -17.4237 -17.4237 -17.3602 -17.3602
     8.3250   8.3250  10.1946  10.1946  11.1831  11.1831  12.5024

          k = 0.0854 0.5426 0.0000 (  6723 PWs)   bands (ev):

   -38.5595 -38.5225 -17.7184 -17.6093 -17.5905 -17.4924 -17.3901 -17.3383
     8.3209   9.0260   9.2848   9.7582  11.3176  11.4690  12.0692

          k = 0.0854 0.5426 0.0829 (  6736 PWs)   bands (ev):

   -38.5581 -38.5239 -17.7411 -17.6346 -17.5579 -17.4831 -17.3803 -17.3413
     8.3058   8.9952   9.4132   9.7692  11.3529  11.4885  12.0215

          k = 0.0854 0.5426 0.1658 (  6740 PWs)   bands (ev):

   -38.5541 -38.5279 -17.7726 -17.6858 -17.5089 -17.4505 -17.3792 -17.3400
     8.3044   8.8940   9.6720   9.8957  11.3657  11.5012  11.9962

          k = 0.0854 0.5426 0.2488 (  6742 PWs)   bands (ev):

   -38.5480 -38.5339 -17.7853 -17.7370 -17.4702 -17.4077 -17.3958 -17.3395
     8.3713   8.7118   9.9429  10.1396  11.2412  11.4123  12.2134

          k = 0.0854 0.5426-0.3317 (  6740 PWs)   bands (ev):

   -38.5410 -38.5410 -17.7729 -17.7729 -17.4353 -17.4353 -17.3593 -17.3593
     8.5165   8.5165  10.1730  10.1730  11.2449  11.2450  12.6118

          k = 0.1709 0.2960 0.0000 (  6765 PWs)   bands (ev):

   -38.5969 -38.5218 -17.7140 -17.5496 -17.5406 -17.4151 -17.3294 -17.3039
     6.5801   9.3960   9.7988  10.1518  11.4488  11.6014  11.9681

          k = 0.1709 0.2960 0.0829 (  6739 PWs)   bands (ev):

   -38.5940 -38.5247 -17.7166 -17.5463 -17.5293 -17.4261 -17.3345 -17.3001
     6.6675   9.3501   9.7273  10.1916  11.4155  11.6559  11.8898

          k = 0.1709 0.2960 0.1658 (  6737 PWs)   bands (ev):

   -38.5859 -38.5328 -17.7147 -17.5710 -17.4816 -17.4370 -17.3484 -17.3010
     6.9235   8.9937   9.8107  10.3026  11.2927  11.6395  11.8524

          k = 0.1709 0.2960 0.2488 (  6737 PWs)   bands (ev):

   -38.5738 -38.5451 -17.6971 -17.6153 -17.4298 -17.4294 -17.3643 -17.3188
     7.3287   8.4333  10.0644  10.4238  11.1148  11.3785  12.0535

          k = 0.1709 0.2960-0.3317 (  6730 PWs)   bands (ev):

   -38.5594 -38.5594 -17.6620 -17.6620 -17.4142 -17.4142 -17.3513 -17.3513
     7.8496   7.8496  10.3413  10.3413  11.1327  11.1327  12.3017

          k = 0.1709 0.3946 0.0000 (  6745 PWs)   bands (ev):

   -38.5770 -38.5206 -17.6520 -17.6260 -17.5803 -17.4599 -17.3572 -17.3444
     7.4219   9.5251   9.5421   9.8425  11.2404  11.7262  11.7354

          k = 0.1709 0.3946 0.0829 (  6741 PWs)   bands (ev):

   -38.5748 -38.5227 -17.6876 -17.6152 -17.5500 -17.4707 -17.3645 -17.3316
     7.4877   9.4341   9.5902   9.9016  11.2229  11.6419  11.7573

          k = 0.1709 0.3946 0.1658 (  6734 PWs)   bands (ev):

   -38.5687 -38.5288 -17.7181 -17.6371 -17.4980 -17.4691 -17.3791 -17.3177
     7.6798   9.1618   9.7643  10.0389  11.1463  11.4457  11.8409

          k = 0.1709 0.3946 0.2488 (  6728 PWs)   bands (ev):

   -38.5596 -38.5380 -17.7257 -17.6755 -17.4756 -17.4381 -17.3819 -17.3219
     7.9816   8.7796  10.0139  10.1993  11.0118  11.1735  12.0584

          k = 0.1709 0.3946-0.3317 (  6732 PWs)   bands (ev):

   -38.5488 -38.5488 -17.7095 -17.7095 -17.4517 -17.4517 -17.3480 -17.3480
     8.3637   8.3637  10.2246  10.2246  10.9712  10.9712  12.3909

          k = 0.1709 0.4933 0.0000 (  6735 PWs)   bands (ev):

   -38.5596 -38.5224 -17.6844 -17.5950 -17.5915 -17.5058 -17.3890 -17.3757
     8.2499   9.3352   9.3760   9.7066  11.1707  11.4897  12.0198

          k = 0.1709 0.4933 0.0829 (  6740 PWs)   bands (ev):

   -38.5582 -38.5238 -17.7057 -17.6288 -17.5529 -17.4990 -17.3925 -17.3617
     8.2781   9.2737   9.4517   9.7873  11.1640  11.4127  12.0152

          k = 0.1709 0.4933 0.1658 (  6741 PWs)   bands (ev):

   -38.5542 -38.5278 -17.7381 -17.6695 -17.5351 -17.4543 -17.4052 -17.3372
     8.3655   9.1332   9.6484   9.9869  11.1007  11.2187  12.0526

          k = 0.1709 0.4933 0.2488 (  6739 PWs)   bands (ev):

   -38.5481 -38.5339 -17.7534 -17.7137 -17.5114 -17.4499 -17.3812 -17.3283
     8.5143   8.9347   9.9401  10.2144  10.9286  10.9841  12.2186

          k = 0.1709 0.4933-0.3317 (  6734 PWs)   bands (ev):

   -38.5410 -38.5410 -17.7447 -17.7447 -17.4802 -17.4802 -17.3439 -17.3439
     8.7140   8.7140  10.2265  10.2265  10.8281  10.8281  12.5250

          k = 0.1709 0.5919 0.0000 (  6738 PWs)   bands (ev):

   -38.5517 -38.5247 -17.7054 -17.5962 -17.5606 -17.5272 -17.4142 -17.3821
     8.7228   9.1485   9.3188   9.6209  11.1943  11.3524  12.1681

          k = 0.1709 0.5919 0.0829 (  6738 PWs)   bands (ev):

   -38.5506 -38.5257 -17.7219 -17.6228 -17.5649 -17.4907 -17.4115 -17.3731
     8.6893   9.1503   9.4535   9.6412  11.1757  11.3121  12.1548

          k = 0.1709 0.5919 0.1658 (  6727 PWs)   bands (ev):

   -38.5477 -38.5286 -17.7504 -17.6759 -17.5521 -17.4308 -17.4269 -17.3471
     8.6644   9.1022   9.7587   9.7664  11.0696  11.1928  12.1810

          k = 0.1709 0.5919 0.2488 (  6738 PWs)   bands (ev):

   -38.5433 -38.5330 -17.7655 -17.7256 -17.5249 -17.4560 -17.3769 -17.3325
     8.7096   8.9740  10.0080  10.1348  10.8375  10.9881  12.3417

          k = 0.1709 0.5919-0.3317 (  6734 PWs)   bands (ev):

   -38.5381 -38.5381 -17.7575 -17.7575 -17.4907 -17.4907 -17.3421 -17.3421
     8.8238   8.8238  10.2770  10.2770  10.7414  10.7414  12.6376

          k = 0.2563 0.4439 0.0000 (  6745 PWs)   bands (ev):

   -38.5597 -38.5223 -17.6555 -17.6056 -17.5921 -17.4982 -17.4026 -17.3885
     8.2270   9.4274   9.5628   9.6071  11.0889  11.5039  11.9791

          k = 0.2563 0.4439 0.0829 (  6739 PWs)   bands (ev):

   -38.5583 -38.5237 -17.6628 -17.6582 -17.5274 -17.5190 -17.4076 -17.3669
     8.2733   9.3655   9.6071   9.7087  11.0825  11.3797  11.9773

          k = 0.2563 0.4439 0.1658 (  6742 PWs)   bands (ev):

   -38.5542 -38.5278 -17.7084 -17.6742 -17.5387 -17.4709 -17.4115 -17.3368
     8.4058   9.2465   9.7405   9.9162  11.0312  11.0950  11.9989

          k = 0.2563 0.4439 0.2488 (  6724 PWs)   bands (ev):

   -38.5481 -38.5338 -17.7305 -17.7040 -17.5293 -17.4745 -17.3757 -17.3251
     8.6058   9.0696   9.9543  10.1496  10.7880  10.8870  12.1309

          k = 0.2563 0.4439-0.3317 (  6736 PWs)   bands (ev):

   -38.5410 -38.5410 -17.7275 -17.7275 -17.5029 -17.5029 -17.3389 -17.3389
     8.8419   8.8419  10.1839  10.1839  10.7031  10.7031  12.4282

          k = 0.2563 0.5426 0.0000 (  6733 PWs)   bands (ev):

   -38.5462 -38.5269 -17.6782 -17.5882 -17.5449 -17.5379 -17.4335 -17.4306
     8.8970   9.3746   9.3964   9.5224  11.0805  11.2805  12.2329

          k = 0.2563 0.5426 0.0829 (  6738 PWs)   bands (ev):

   -38.5454 -38.5276 -17.6836 -17.6263 -17.5750 -17.4865 -17.4408 -17.4004
     8.9182   9.3516   9.4554   9.6125  11.0471  11.1719  12.2228

          k = 0.2563 0.5426 0.1658 (  6734 PWs)   bands (ev):

   -38.5433 -38.5297 -17.7083 -17.6692 -17.5917 -17.4712 -17.4123 -17.3580
     8.9808   9.3223   9.6163   9.8302  10.8981  10.9346  12.2268

          k = 0.2563 0.5426 0.2488 (  6740 PWs)   bands (ev):

   -38.5402 -38.5328 -17.7311 -17.7092 -17.5720 -17.5014 -17.3622 -17.3327
     9.0765   9.2701   9.8739  10.1205  10.5555  10.7227  12.3197

          k = 0.2563 0.5426-0.3317 (  6740 PWs)   bands (ev):

   -38.5365 -38.5365 -17.7322 -17.7322 -17.5379 -17.5379 -17.3338 -17.3338
     9.1829   9.1829  10.1979  10.1979  10.4376  10.4376  12.5609

          k = 0.3417 0.5919 0.0000 (  6732 PWs)   bands (ev):

   -38.5349 -38.5349 -17.6701 -17.5704 -17.5704 -17.4840 -17.4840 -17.4608
     9.3164   9.3164   9.3840   9.4202  11.1197  11.1197  12.3430

          k = 0.3417 0.5919 0.0829 (  6735 PWs)   bands (ev):

   -38.5349 -38.5349 -17.6623 -17.6115 -17.6115 -17.4689 -17.4424 -17.4424
     9.3677   9.3677   9.4147   9.4415  11.0362  11.0362  12.3306

          k = 0.3417 0.5919 0.1658 (  6762 PWs)   bands (ev):

   -38.5349 -38.5349 -17.6673 -17.6673 -17.6400 -17.4920 -17.3851 -17.3851
     9.4898   9.4966   9.5125   9.5125  10.8213  10.8213  12.3212

          k = 0.3417 0.5919 0.2488 (  6747 PWs)   bands (ev):

   -38.5348 -38.5348 -17.7063 -17.7063 -17.6064 -17.5263 -17.3447 -17.3447
     9.5596   9.5648   9.7153   9.7153  10.5572  10.5572  12.3857

          k = 0.3417 0.5919-0.3317 (  6744 PWs)   bands (ev):

   -38.5348 -38.5348 -17.7200 -17.7200 -17.5665 -17.5665 -17.3304 -17.3304
     9.5919   9.5919   9.8468   9.8468  10.4025  10.4025  12.5969

     the Fermi energy is    10.0378 ev

!    total energy              =    -306.88101560 Ry
     total all-electron energy =     -3050.021786 Ry
     estimated scf accuracy    <          7.0E-11 Ry
     smearing contrib. (-TS)   =      -0.00077228 Ry
     internal energy E=F+TS    =    -306.88024332 Ry

     The total energy is F=E-TS. E is the sum of the following terms:
     one-electron contribution =     -67.63236377 Ry
     hartree contribution      =      40.13543527 Ry
     xc contribution           =     -34.67044936 Ry
     ewald contribution        =    -130.95656362 Ry
     one-center paw contrib.   =    -113.75630183 Ry

     convergence has been achieved in  15 iterations

     Forces acting on atoms (cartesian axes, Ry/au):

     atom    1 type  1   force =    -0.00000000    0.00000000   -0.00000000
     atom    2 type  1   force =     0.00000000    0.00000000    0.00000000
     The non-local contrib.  to forces
     atom    1 type  1   force =     0.00000000    0.00000000    0.00000000
     atom    2 type  1   force =     0.00000000    0.00000000    0.00000000
     The ionic contribution  to forces
     atom    1 type  1   force =     0.00000000   -0.00000000   -0.00000000
     atom    2 type  1   force =    -0.00000000    0.00000000    0.00000000
     The local contribution  to forces
     atom    1 type  1   force =     0.00000000    0.00000000   -0.00000000
     atom    2 type  1   force =    -0.00000000    0.00000000    0.00000000
     The core correction contribution to forces
     atom    1 type  1   force =     0.00000000    0.00000000    0.00000000
     atom    2 type  1   force =     0.00000000   -0.00000000   -0.00000000
     The Hubbard contrib.    to forces
     atom    1 type  1   force =     0.00000000    0.00000000    0.00000000
     atom    2 type  1   force =     0.00000000    0.00000000    0.00000000
     The SCF correction term to forces
     atom    1 type  1   force =    -0.00000000    0.00000000   -0.00000000
     atom    2 type  1   force =     0.00000000    0.00000000   -0.00000000

     Total force =     0.000000     Total SCF correction =     0.000000


     Computing stress (Cartesian axis) and pressure

          total   stress  (Ry/bohr**3)                   (kbar)     P=       -0.28
  -0.00000192  -0.00000000  -0.00000000           -0.28       -0.00       -0.00
  -0.00000000  -0.00000192  -0.00000000           -0.00       -0.28       -0.00
  -0.00000000  -0.00000000  -0.00000186           -0.00       -0.00       -0.27


     Writing all to output data dir sc_vcrelax.out/scandium.save/

     init_run     :     10.63s CPU     10.78s WALL (       2 calls)
     electrons    :   2727.27s CPU   2773.68s WALL (      10 calls)
     update_pot   :     10.88s CPU     10.89s WALL (       8 calls)
     forces       :     14.83s CPU     14.93s WALL (      10 calls)
     stress       :     68.06s CPU     68.60s WALL (      10 calls)

     Called by init_run:
     wfcinit      :      7.47s CPU      7.53s WALL (       2 calls)
     potinit      :      0.68s CPU      0.75s WALL (       2 calls)
     hinit0       :      2.17s CPU      2.17s WALL (       2 calls)

     Called by electrons:
     c_bands      :   2461.28s CPU   2501.61s WALL (     202 calls)
     sum_band     :    247.63s CPU    251.42s WALL (     202 calls)
     v_of_rho     :      1.02s CPU      1.02s WALL (     210 calls)
     newd         :      9.96s CPU     11.74s WALL (     210 calls)
     PAW_pot      :      7.53s CPU      7.53s WALL (     218 calls)
     mix_rho      :      0.82s CPU      0.85s WALL (     202 calls)

     Called by c_bands:
     init_us_2    :     30.51s CPU     32.87s WALL (   41230 calls)
     init_us_2:cp :     30.37s CPU     32.79s WALL (   41230 calls)
     cegterg      :   2394.81s CPU   2412.30s WALL (   19441 calls)

     Called by *egterg:
     cdiaghg      :     37.41s CPU     37.73s WALL (  142235 calls)
     h_psi        :   1767.08s CPU   1782.72s WALL (  143559 calls)
     s_psi        :    123.42s CPU    123.96s WALL (  143559 calls)
     g_psi        :     12.38s CPU     12.46s WALL (  123928 calls)

     Called by h_psi:
     h_psi:calbec :    120.76s CPU    121.51s WALL (  143559 calls)
     vloc_psi     :   1518.38s CPU   1532.88s WALL (  143559 calls)
     add_vuspsi   :    123.67s CPU    124.13s WALL (  143559 calls)

     General routines
     calbec       :    158.15s CPU    159.12s WALL (  168259 calls)
     fft          :      1.03s CPU      1.06s WALL (     930 calls)
     ffts         :      0.21s CPU      0.22s WALL (     202 calls)
     fftw         :   1572.66s CPU   1587.71s WALL ( 2655566 calls)

     Parallel routines

     PWSCF        :  47m14.58s CPU  48m 4.46s WALL


   This run was terminated on:  19:50:41  19Jun2023            

=------------------------------------------------------------------------------=
   JOB DONE.
=------------------------------------------------------------------------------=
