
     Program PWSCF v.7.2 starts on 26Jul2023 at 15:52:14 

     This program is part of the open-source Quantum ESPRESSO suite
     for quantum simulation of materials; please cite
         "P. Giannozzi et al., J. Phys.:Condens. Matter 21 395502 (2009);
         "P. Giannozzi et al., J. Phys.:Condens. Matter 29 465901 (2017);
         "P. Giannozzi et al., J. Chem. Phys. 152 154105 (2020);
          URL http://www.quantum-espresso.org", 
     in publications or presentations arising from this work. More details at
     http://www.quantum-espresso.org/quote

     Parallel version (MPI), running on    20 processors

     MPI processes distributed on     1 nodes
     302797 MiB available memory on the printing compute node when the environment starts

     Waiting for input...
     Reading input from standard input

     Current dimensions of program PWSCF are:
     Max number of different atomic species (ntypx) = 10
     Max number of k-points (npk) = 120000
     Max angular momentum in pseudopotentials (lmaxx) =  4
     file Sc.pz-spn-kjpaw_psl.1.0.0.UPF: wavefunction(s)  3S 3P 3D renormalized

     R & G space division:  proc/nbgrp/npool/nimage =      20
     Subspace diagonalization in iterative solution of the eigenvalue problem:
     a serial algorithm will be used


     Parallelization info
     --------------------
     sticks:   dense  smooth     PW     G-vecs:    dense   smooth      PW
     Min          42      42     12                 1626     1626     256
     Max          43      43     13                 1637     1637     263
     Sum         859     859    253                32631    32631    5203

     Using Slab Decomposition



     bravais-lattice index     =            4
     lattice parameter (alat)  =       6.2531  a.u.
     unit-cell volume          =     337.5249 (a.u.)^3
     number of atoms/cell      =            2
     number of atomic types    =            1
     number of electrons       =        22.00
     number of Kohn-Sham states=           15
     kinetic-energy cutoff     =      80.0000  Ry
     charge density cutoff     =     320.0000  Ry
     scf convergence threshold =      1.0E-08
     mixing beta               =       0.7000
     number of iterations used =            8  plain     mixing
     Exchange-correlation= SLA  PZ   NOGX NOGC
                           (   1   1   0   0   0   0   0)

     celldm(1)=   6.253104  celldm(2)=   0.000000  celldm(3)=   1.594000
     celldm(4)=   0.000000  celldm(5)=   0.000000  celldm(6)=   0.000000

     crystal axes: (cart. coord. in units of alat)
               a(1) = (   1.000000   0.000000   0.000000 )  
               a(2) = (  -0.500000   0.866025   0.000000 )  
               a(3) = (   0.000000   0.000000   1.594000 )  

     reciprocal axes: (cart. coord. in units 2 pi/alat)
               b(1) = (  1.000000  0.577350 -0.000000 )  
               b(2) = (  0.000000  1.154701  0.000000 )  
               b(3) = (  0.000000 -0.000000  0.627353 )  


     PseudoPot. # 1 for Sc read from file:
     ../../../Sc.pz-spn-kjpaw_psl.1.0.0.UPF
     MD5 check sum: 1f9095df0bb42a6568b4e9f256ff075f
     Pseudo is Projector augmented-wave + core cor, Zval = 11.0
     Generated using 'atomic' code by A. Dal Corso  v.7.1
     Shape of augmentation charge: PSQ
     Using radial grid of 1173 points,  6 beta functions with: 
                l(1) =   0
                l(2) =   0
                l(3) =   1
                l(4) =   1
                l(5) =   2
                l(6) =   2
     Q(r) pseudized with 0 coefficients 


     atomic species   valence    mass     pseudopotential
        Sc            11.00    44.59600     Sc( 1.00)

     24 Sym. Ops., with inversion, found (12 have fractional translation)



   Cartesian axes

     site n.     atom                  positions (alat units)
         1           Sc  tau(   1) = (   0.0000000   0.0000000   0.0000000  )
         2           Sc  tau(   2) = (   0.5000000   0.2886751   0.7970000  )

     number of k points=    95  Marzari-Vanderbilt smearing, width (Ry)=  0.0050
                       cart. coord. in units 2pi/alat
        k(    1) = (   0.0000000   0.0000000   0.0000000), wk =   0.0017361
        k(    2) = (   0.0000000   0.0000000   0.0784191), wk =   0.0034722
        k(    3) = (   0.0000000   0.0000000   0.1568381), wk =   0.0034722
        k(    4) = (   0.0000000   0.0000000   0.2352572), wk =   0.0034722
        k(    5) = (   0.0000000   0.0000000  -0.3136763), wk =   0.0017361
        k(    6) = (   0.0000000   0.0962250   0.0000000), wk =   0.0104167
        k(    7) = (   0.0000000   0.0962250   0.0784191), wk =   0.0208333
        k(    8) = (   0.0000000   0.0962250   0.1568381), wk =   0.0208333
        k(    9) = (   0.0000000   0.0962250   0.2352572), wk =   0.0208333
        k(   10) = (   0.0000000   0.0962250  -0.3136763), wk =   0.0104167
        k(   11) = (   0.0000000   0.1924501   0.0000000), wk =   0.0104167
        k(   12) = (   0.0000000   0.1924501   0.0784191), wk =   0.0208333
        k(   13) = (   0.0000000   0.1924501   0.1568381), wk =   0.0208333
        k(   14) = (   0.0000000   0.1924501   0.2352572), wk =   0.0208333
        k(   15) = (   0.0000000   0.1924501  -0.3136763), wk =   0.0104167
        k(   16) = (   0.0000000   0.2886751   0.0000000), wk =   0.0104167
        k(   17) = (   0.0000000   0.2886751   0.0784191), wk =   0.0208333
        k(   18) = (   0.0000000   0.2886751   0.1568381), wk =   0.0208333
        k(   19) = (   0.0000000   0.2886751   0.2352572), wk =   0.0208333
        k(   20) = (   0.0000000   0.2886751  -0.3136763), wk =   0.0104167
        k(   21) = (   0.0000000   0.3849002   0.0000000), wk =   0.0104167
        k(   22) = (   0.0000000   0.3849002   0.0784191), wk =   0.0208333
        k(   23) = (   0.0000000   0.3849002   0.1568381), wk =   0.0208333
        k(   24) = (   0.0000000   0.3849002   0.2352572), wk =   0.0208333
        k(   25) = (   0.0000000   0.3849002  -0.3136763), wk =   0.0104167
        k(   26) = (   0.0000000   0.4811252   0.0000000), wk =   0.0104167
        k(   27) = (   0.0000000   0.4811252   0.0784191), wk =   0.0208333
        k(   28) = (   0.0000000   0.4811252   0.1568381), wk =   0.0208333
        k(   29) = (   0.0000000   0.4811252   0.2352572), wk =   0.0208333
        k(   30) = (   0.0000000   0.4811252  -0.3136763), wk =   0.0104167
        k(   31) = (   0.0000000  -0.5773503   0.0000000), wk =   0.0052083
        k(   32) = (   0.0000000  -0.5773503   0.0784191), wk =   0.0104167
        k(   33) = (   0.0000000  -0.5773503   0.1568381), wk =   0.0104167
        k(   34) = (   0.0000000  -0.5773503   0.2352572), wk =   0.0104167
        k(   35) = (   0.0000000  -0.5773503  -0.3136763), wk =   0.0052083
        k(   36) = (   0.0833333   0.1443376   0.0000000), wk =   0.0104167
        k(   37) = (   0.0833333   0.1443376   0.0784191), wk =   0.0208333
        k(   38) = (   0.0833333   0.1443376   0.1568381), wk =   0.0208333
        k(   39) = (   0.0833333   0.1443376   0.2352572), wk =   0.0208333
        k(   40) = (   0.0833333   0.1443376  -0.3136763), wk =   0.0104167
        k(   41) = (   0.0833333   0.2405626   0.0000000), wk =   0.0208333
        k(   42) = (   0.0833333   0.2405626   0.0784191), wk =   0.0416667
        k(   43) = (   0.0833333   0.2405626   0.1568381), wk =   0.0416667
        k(   44) = (   0.0833333   0.2405626   0.2352572), wk =   0.0416667
        k(   45) = (   0.0833333   0.2405626  -0.3136763), wk =   0.0208333
        k(   46) = (   0.0833333   0.3367877   0.0000000), wk =   0.0208333
        k(   47) = (   0.0833333   0.3367877   0.0784191), wk =   0.0416667
        k(   48) = (   0.0833333   0.3367877   0.1568381), wk =   0.0416667
        k(   49) = (   0.0833333   0.3367877   0.2352572), wk =   0.0416667
        k(   50) = (   0.0833333   0.3367877  -0.3136763), wk =   0.0208333
        k(   51) = (   0.0833333   0.4330127   0.0000000), wk =   0.0208333
        k(   52) = (   0.0833333   0.4330127   0.0784191), wk =   0.0416667
        k(   53) = (   0.0833333   0.4330127   0.1568381), wk =   0.0416667
        k(   54) = (   0.0833333   0.4330127   0.2352572), wk =   0.0416667
        k(   55) = (   0.0833333   0.4330127  -0.3136763), wk =   0.0208333
        k(   56) = (   0.0833333   0.5292377   0.0000000), wk =   0.0208333
        k(   57) = (   0.0833333   0.5292377   0.0784191), wk =   0.0416667
        k(   58) = (   0.0833333   0.5292377   0.1568381), wk =   0.0416667
        k(   59) = (   0.0833333   0.5292377   0.2352572), wk =   0.0416667
        k(   60) = (   0.0833333   0.5292377  -0.3136763), wk =   0.0208333
        k(   61) = (   0.1666667   0.2886751   0.0000000), wk =   0.0104167
        k(   62) = (   0.1666667   0.2886751   0.0784191), wk =   0.0208333
        k(   63) = (   0.1666667   0.2886751   0.1568381), wk =   0.0208333
        k(   64) = (   0.1666667   0.2886751   0.2352572), wk =   0.0208333
        k(   65) = (   0.1666667   0.2886751  -0.3136763), wk =   0.0104167
        k(   66) = (   0.1666667   0.3849002   0.0000000), wk =   0.0208333
        k(   67) = (   0.1666667   0.3849002   0.0784191), wk =   0.0416667
        k(   68) = (   0.1666667   0.3849002   0.1568381), wk =   0.0416667
        k(   69) = (   0.1666667   0.3849002   0.2352572), wk =   0.0416667
        k(   70) = (   0.1666667   0.3849002  -0.3136763), wk =   0.0208333
        k(   71) = (   0.1666667   0.4811252   0.0000000), wk =   0.0208333
        k(   72) = (   0.1666667   0.4811252   0.0784191), wk =   0.0416667
        k(   73) = (   0.1666667   0.4811252   0.1568381), wk =   0.0416667
        k(   74) = (   0.1666667   0.4811252   0.2352572), wk =   0.0416667
        k(   75) = (   0.1666667   0.4811252  -0.3136763), wk =   0.0208333
        k(   76) = (   0.1666667   0.5773503   0.0000000), wk =   0.0104167
        k(   77) = (   0.1666667   0.5773503   0.0784191), wk =   0.0208333
        k(   78) = (   0.1666667   0.5773503   0.1568381), wk =   0.0208333
        k(   79) = (   0.1666667   0.5773503   0.2352572), wk =   0.0208333
        k(   80) = (   0.1666667   0.5773503  -0.3136763), wk =   0.0104167
        k(   81) = (   0.2500000   0.4330127   0.0000000), wk =   0.0104167
        k(   82) = (   0.2500000   0.4330127   0.0784191), wk =   0.0208333
        k(   83) = (   0.2500000   0.4330127   0.1568381), wk =   0.0208333
        k(   84) = (   0.2500000   0.4330127   0.2352572), wk =   0.0208333
        k(   85) = (   0.2500000   0.4330127  -0.3136763), wk =   0.0104167
        k(   86) = (   0.2500000   0.5292377   0.0000000), wk =   0.0208333
        k(   87) = (   0.2500000   0.5292377   0.0784191), wk =   0.0416667
        k(   88) = (   0.2500000   0.5292377   0.1568381), wk =   0.0416667
        k(   89) = (   0.2500000   0.5292377   0.2352572), wk =   0.0416667
        k(   90) = (   0.2500000   0.5292377  -0.3136763), wk =   0.0208333
        k(   91) = (   0.3333333   0.5773503   0.0000000), wk =   0.0034722
        k(   92) = (   0.3333333   0.5773503   0.0784191), wk =   0.0069444
        k(   93) = (   0.3333333   0.5773503   0.1568381), wk =   0.0069444
        k(   94) = (   0.3333333   0.5773503   0.2352572), wk =   0.0069444
        k(   95) = (   0.3333333   0.5773503  -0.3136763), wk =   0.0034722

     Dense  grid:    32631 G-vectors     FFT dimensions: (  36,  36,  60)

     Estimated max dynamical RAM per process >      11.65 MB

     Estimated total dynamical RAM >     233.02 MB

     Check: negative core charge=   -0.000015

     Initial potential from superposition of free atoms

     starting charge      21.9956, renormalised to      22.0000
     Starting wfcs are   20 randomized atomic wfcs
     Checking if some PAW data can be deallocated... 

     total cpu time spent up to now is        1.1 secs

     Self-consistent Calculation

     iteration #  1     ecut=    80.00 Ry     beta= 0.70
     Davidson diagonalization with overlap
     ethr =  1.00E-02,  avg # of iterations =  2.2

     Threshold (ethr) on eigenvalues was too large:
     Diagonalizing with lowered threshold

     Davidson diagonalization with overlap
     c_bands:  1 eigenvalues not converged
     c_bands:  2 eigenvalues not converged
     c_bands:  2 eigenvalues not converged
     c_bands:  1 eigenvalues not converged
     c_bands:  4 eigenvalues not converged
     c_bands:  4 eigenvalues not converged
     c_bands:  1 eigenvalues not converged
     c_bands:  1 eigenvalues not converged
     c_bands:  3 eigenvalues not converged
     c_bands:  4 eigenvalues not converged
     c_bands:  3 eigenvalues not converged
     c_bands:  3 eigenvalues not converged
     c_bands:  2 eigenvalues not converged
     c_bands:  3 eigenvalues not converged
     c_bands:  3 eigenvalues not converged
     c_bands:  5 eigenvalues not converged
     c_bands:  5 eigenvalues not converged
     c_bands:  2 eigenvalues not converged
     ethr =  1.91E-05,  avg # of iterations = 16.9

     total cpu time spent up to now is        8.7 secs

     total energy              =    -306.86669863 Ry
     estimated scf accuracy    <       0.02000173 Ry

     iteration #  2     ecut=    80.00 Ry     beta= 0.70
     Davidson diagonalization with overlap
     ethr =  9.09E-05,  avg # of iterations =  3.9

     total cpu time spent up to now is       10.6 secs

     total energy              =    -306.87158555 Ry
     estimated scf accuracy    <       0.00135792 Ry

     iteration #  3     ecut=    80.00 Ry     beta= 0.70
     Davidson diagonalization with overlap
     c_bands:  1 eigenvalues not converged
     ethr =  6.17E-06,  avg # of iterations =  8.5

     total cpu time spent up to now is       13.3 secs

     total energy              =    -306.87263374 Ry
     estimated scf accuracy    <       0.00035092 Ry

     iteration #  4     ecut=    80.00 Ry     beta= 0.70
     Davidson diagonalization with overlap
     c_bands:  2 eigenvalues not converged
     ethr =  1.60E-06,  avg # of iterations =  6.3

     total cpu time spent up to now is       15.5 secs

     total energy              =    -306.87282793 Ry
     estimated scf accuracy    <       0.00018451 Ry

     iteration #  5     ecut=    80.00 Ry     beta= 0.70
     Davidson diagonalization with overlap
     c_bands:  1 eigenvalues not converged
     ethr =  8.39E-07,  avg # of iterations =  5.7

     total cpu time spent up to now is       17.3 secs

     total energy              =    -306.87291547 Ry
     estimated scf accuracy    <       0.00001237 Ry

     iteration #  6     ecut=    80.00 Ry     beta= 0.70
     Davidson diagonalization with overlap
     c_bands:  1 eigenvalues not converged
     ethr =  5.62E-08,  avg # of iterations = 10.2

     total cpu time spent up to now is       19.9 secs

     total energy              =    -306.87292188 Ry
     estimated scf accuracy    <       0.00002438 Ry

     iteration #  7     ecut=    80.00 Ry     beta= 0.70
     Davidson diagonalization with overlap
     ethr =  5.62E-08,  avg # of iterations =  4.7

     total cpu time spent up to now is       21.6 secs

     total energy              =    -306.87292651 Ry
     estimated scf accuracy    <       0.00000030 Ry

     iteration #  8     ecut=    80.00 Ry     beta= 0.70
     Davidson diagonalization with overlap
     c_bands:  1 eigenvalues not converged
     c_bands:  1 eigenvalues not converged
     ethr =  1.38E-09,  avg # of iterations = 15.3

     total cpu time spent up to now is       25.6 secs

     total energy              =    -306.87292842 Ry
     estimated scf accuracy    <       0.00000172 Ry

     iteration #  9     ecut=    80.00 Ry     beta= 0.70
     Davidson diagonalization with overlap
     ethr =  1.38E-09,  avg # of iterations =  2.7

     total cpu time spent up to now is       27.0 secs

     total energy              =    -306.87292797 Ry
     estimated scf accuracy    <       0.00000077 Ry

     iteration # 10     ecut=    80.00 Ry     beta= 0.70
     Davidson diagonalization with overlap
     ethr =  1.38E-09,  avg # of iterations =  6.6

     total cpu time spent up to now is       29.1 secs

     total energy              =    -306.87292832 Ry
     estimated scf accuracy    <       0.00000004 Ry

     iteration # 11     ecut=    80.00 Ry     beta= 0.70
     Davidson diagonalization with overlap
     ethr =  1.84E-10,  avg # of iterations =  6.8

     total cpu time spent up to now is       31.1 secs

     total energy              =    -306.87292832 Ry
     estimated scf accuracy    <       0.00000007 Ry

     iteration # 12     ecut=    80.00 Ry     beta= 0.70
     Davidson diagonalization with overlap
     ethr =  1.84E-10,  avg # of iterations =  1.4

     total cpu time spent up to now is       32.3 secs

     total energy              =    -306.87292830 Ry
     estimated scf accuracy    <       0.00000003 Ry

     iteration # 13     ecut=    80.00 Ry     beta= 0.70
     Davidson diagonalization with overlap
     ethr =  1.25E-10,  avg # of iterations =  6.7

     total cpu time spent up to now is       34.3 secs

     total energy              =    -306.87292832 Ry
     estimated scf accuracy    <       0.00000003 Ry

     iteration # 14     ecut=    80.00 Ry     beta= 0.70
     Davidson diagonalization with overlap
     ethr =  1.22E-10,  avg # of iterations =  2.4

     total cpu time spent up to now is       35.6 secs

     End of self-consistent calculation

          k = 0.0000 0.0000 0.0000 (  4055 PWs)   bands (ev):

   -40.1393 -40.0750 -19.2235 -18.8911 -18.8911 -18.8327 -18.8327 -18.8146
     3.7531   7.1395   9.3008  10.3500  10.3500  10.4608  10.7536

          k = 0.0000 0.0000 0.0784 (  4055 PWs)   bands (ev):

   -40.1369 -40.0775 -19.2085 -18.8888 -18.8888 -18.8349 -18.8349 -18.8307
     3.8543   6.9862   9.2699  10.3073  10.3073  10.3956  10.6980

          k = 0.0000 0.0000 0.1568 (  4078 PWs)   bands (ev):

   -40.1300 -40.0845 -19.1653 -18.8825 -18.8825 -18.8763 -18.8412 -18.8412
     4.1513   6.5412   9.2776  10.2129  10.2448  10.2449  10.5631

          k = 0.0000 0.0000 0.2353 (  4078 PWs)   bands (ev):

   -40.1196 -40.0950 -19.1002 -18.9438 -18.8731 -18.8731 -18.8507 -18.8507
     4.6229   5.9062   9.4177   9.9504  10.2329  10.2333  10.4107

          k = 0.0000 0.0000-0.3137 (  4060 PWs)   bands (ev):

   -40.1073 -40.1073 -19.0225 -19.0225 -18.8619 -18.8619 -18.8619 -18.8619
     5.2301   5.2301   9.6635   9.6635  10.2910  10.2910  10.2910

          k = 0.0000 0.0962 0.0000 (  4067 PWs)   bands (ev):

   -40.1360 -40.0737 -19.2147 -18.9093 -18.8971 -18.8517 -18.8353 -18.8183
     3.9043   7.2694   9.1759  10.0808  10.4594  10.6282  10.6900

          k = 0.0000 0.0962 0.0784 (  4065 PWs)   bands (ev):

   -40.1337 -40.0760 -19.2006 -18.9067 -18.8948 -18.8596 -18.8376 -18.8282
     4.0041   7.1157   9.1479  10.0769  10.4050  10.5031  10.7855

          k = 0.0000 0.0962 0.1568 (  4062 PWs)   bands (ev):

   -40.1269 -40.0828 -19.1601 -18.8996 -18.8925 -18.8881 -18.8451 -18.8444
     4.2969   6.6685   9.1701  10.0827  10.2320  10.3317  10.6457

          k = 0.0000 0.0962 0.2353 (  4059 PWs)   bands (ev):

   -40.1169 -40.0930 -19.0990 -18.9535 -18.8875 -18.8781 -18.8595 -18.8544
     4.7624   6.0340   9.3308   9.9171  10.1295  10.3171  10.3750

          k = 0.0000 0.0962-0.3137 (  4072 PWs)   bands (ev):

   -40.1049 -40.1049 -19.0264 -19.0264 -18.8738 -18.8738 -18.8663 -18.8663
     5.3628   5.3628   9.5993   9.5994  10.2300  10.2309  10.3749

          k = 0.0000 0.1925 0.0000 (  4083 PWs)   bands (ev):

   -40.1268 -40.0701 -19.1895 -18.9594 -18.9132 -18.9029 -18.8428 -18.8296
     4.3436   7.6178   8.8897   9.6696  10.4041  10.7774  10.8109

          k = 0.0000 0.1925 0.0784 (  4068 PWs)   bands (ev):

   -40.1246 -40.0723 -19.1785 -18.9553 -18.9123 -18.9105 -18.8455 -18.8360
     4.4385   7.4643   8.8733   9.6889  10.3954  10.5403  10.6279

          k = 0.0000 0.1925 0.1568 (  4056 PWs)   bands (ev):

   -40.1185 -40.0784 -19.1469 -18.9486 -18.9355 -18.9029 -18.8531 -18.8527
     4.7174   7.0137   8.9344   9.7457  10.1707  10.4043  10.5370

          k = 0.0000 0.1925 0.2353 (  4076 PWs)   bands (ev):

   -40.1094 -40.0877 -19.0996 -18.9887 -18.9220 -18.8916 -18.8751 -18.8646
     5.1617   6.3874   9.1357   9.7344   9.9538  10.2561  10.5304

          k = 0.0000 0.1925-0.3137 (  4076 PWs)   bands (ev):

   -40.0985 -40.0985 -19.0437 -19.0437 -18.8992 -18.8992 -18.8781 -18.8781
     5.7375   5.7375   9.4318   9.4318  10.0750  10.0751  10.6015

          k = 0.0000 0.2887 0.0000 (  4059 PWs)   bands (ev):

   -40.1136 -40.0658 -19.1517 -19.0286 -18.9707 -18.9344 -18.8538 -18.8483
     5.0251   8.0248   8.5818   9.2453  10.1847  10.4664  10.5663

          k = 0.0000 0.2887 0.0784 (  4069 PWs)   bands (ev):

   -40.1118 -40.0676 -19.1483 -19.0198 -18.9798 -18.9313 -18.8568 -18.8517
     5.1103   7.8766   8.5927   9.2760  10.1572  10.4063  10.5793

          k = 0.0000 0.2887 0.1568 (  4066 PWs)   bands (ev):

   -40.1066 -40.0728 -19.1366 -19.0155 -18.9847 -18.9226 -18.8656 -18.8635
     5.3607   7.4429   8.7098   9.3526  10.0117  10.2950  10.6288

          k = 0.0000 0.2887 0.2353 (  4076 PWs)   bands (ev):

   -40.0989 -40.0806 -19.1148 -19.0477 -18.9529 -18.9096 -18.8856 -18.8788
     5.7597   6.8652   8.9366   9.3902   9.8528  10.1253  10.7295

          k = 0.0000 0.2887-0.3137 (  4072 PWs)   bands (ev):

   -40.0898 -40.0898 -19.0838 -19.0838 -18.9169 -18.9169 -18.8942 -18.8942
     6.2775   6.2775   9.2088   9.2088   9.9279   9.9279  10.8822

          k = 0.0000 0.3849 0.0000 (  4090 PWs)   bands (ev):

   -40.0994 -40.0625 -19.1073 -19.0984 -19.0363 -18.9549 -18.8735 -18.8653
     5.8645   8.1840   8.3323   8.9109  10.2104  10.2192  10.3540

          k = 0.0000 0.3849 0.0784 (  4079 PWs)   bands (ev):

   -40.0980 -40.0639 -19.1342 -19.0671 -19.0406 -18.9515 -18.8736 -18.8687
     5.9315   8.0424   8.4013   8.9525  10.0660  10.2974  10.4034

          k = 0.0000 0.3849 0.1568 (  4074 PWs)   bands (ev):

   -40.0940 -40.0679 -19.1510 -19.0799 -19.0067 -18.9418 -18.8785 -18.8779
     6.1276   7.7098   8.5624   9.0407   9.9204  10.2471  10.5485

          k = 0.0000 0.3849 0.2353 (  4076 PWs)   bands (ev):

   -40.0880 -40.0739 -19.1514 -19.1103 -18.9608 -18.9274 -18.8931 -18.8929
     6.4381   7.2807   8.7852   9.0944   9.8332  10.0781  10.7786

          k = 0.0000 0.3849-0.3137 (  4070 PWs)   bands (ev):

   -40.0810 -40.0810 -19.1366 -19.1366 -18.9211 -18.9211 -18.9103 -18.9103
     6.8364   6.8364   9.0012   9.0012   9.8948   9.8949  11.0735

          k = 0.0000 0.4811 0.0000 (  4090 PWs)   bands (ev):

   -40.0876 -40.0614 -19.1497 -19.0832 -19.0661 -18.9696 -18.9007 -18.8739
     6.7156   8.0179   8.1750   8.6616  10.0486  10.2127  10.4240

          k = 0.0000 0.4811 0.0784 (  4083 PWs)   bands (ev):

   -40.0866 -40.0624 -19.1636 -19.0970 -19.0414 -18.9660 -18.8973 -18.8776
     6.7473   7.9221   8.2740   8.6920  10.0539  10.2746  10.3777

          k = 0.0000 0.4811 0.1568 (  4074 PWs)   bands (ev):

   -40.0838 -40.0652 -19.1822 -19.1255 -18.9975 -18.9557 -18.8937 -18.8880
     6.8437   7.7267   8.4675   8.7889  10.0407  10.2551  10.4574

          k = 0.0000 0.4811 0.2353 (  4075 PWs)   bands (ev):

   -40.0795 -40.0695 -19.1885 -19.1561 -18.9540 -18.9402 -18.9036 -18.8996
     7.0055   7.4783   8.6985   8.8993   9.9838  10.1054  10.7506

          k = 0.0000 0.4811-0.3137 (  4082 PWs)   bands (ev):

   -40.0745 -40.0745 -19.1791 -19.1791 -18.9220 -18.9220 -18.9199 -18.9199
     7.2247   7.2247   8.8817   8.8817   9.9872   9.9872  11.1349

          k = 0.0000-0.5774 0.0000 (  4072 PWs)   bands (ev):

   -40.0826 -40.0617 -19.1685 -19.1002 -19.0467 -18.9749 -18.9149 -18.8771
     7.2303   7.7819   8.1218   8.5466   9.9878  10.1634  10.5233

          k = 0.0000-0.5774 0.0784 (  4082 PWs)   bands (ev):

   -40.0819 -40.0625 -19.1796 -19.1129 -19.0279 -18.9712 -18.9097 -18.8809
     7.2098   7.7589   8.2330   8.5439  10.0429  10.2288  10.4522

          k = 0.0000-0.5774 0.1568 (  4074 PWs)   bands (ev):

   -40.0796 -40.0647 -19.1966 -19.1419 -18.9887 -18.9607 -18.9019 -18.8916
     7.1945   7.6663   8.4962   8.5949  10.1385  10.2727  10.4219

          k = 0.0000-0.5774 0.2353 (  4084 PWs)   bands (ev):

   -40.0762 -40.0681 -19.2034 -19.1727 -18.9491 -18.9449 -18.9075 -18.9031
     7.2379   7.5099   8.7329   8.7648  10.0902  10.1457  10.7330

          k = 0.0000-0.5774-0.3137 (  4100 PWs)   bands (ev):

   -40.0722 -40.0722 -19.1950 -19.1950 -18.9263 -18.9263 -18.9189 -18.9189
     7.3503   7.3503   8.8505   8.8505  10.0612  10.0613  11.1432

          k = 0.0833 0.1443 0.0000 (  4063 PWs)   bands (ev):

   -40.1298 -40.0712 -19.1977 -18.9400 -18.9162 -18.8798 -18.8428 -18.8258
     4.1999   7.5109   8.9753   9.7813  10.4848  10.6885  10.7598

          k = 0.0833 0.1443 0.0784 (  4062 PWs)   bands (ev):

   -40.1275 -40.0734 -19.1855 -18.9363 -18.9156 -18.8876 -18.8454 -18.8326
     4.2965   7.3569   8.9544   9.7964  10.4931  10.5088  10.5826

          k = 0.0833 0.1443 0.1568 (  4068 PWs)   bands (ev):

   -40.1212 -40.0798 -19.1508 -18.9292 -18.9259 -18.8977 -18.8527 -18.8489
     4.5803   6.9064   9.0027   9.8448  10.1970  10.4331  10.4905

          k = 0.0833 0.1443 0.2353 (  4069 PWs)   bands (ev):

   -40.1118 -40.0893 -19.0985 -18.9761 -18.9102 -18.8910 -18.8677 -18.8634
     5.0323   6.2757   9.1935   9.8105   9.9869  10.2855  10.4766

          k = 0.0833 0.1443-0.3137 (  4072 PWs)   bands (ev):

   -40.1006 -40.1006 -19.0369 -19.0369 -18.8924 -18.8924 -18.8746 -18.8746
     5.6172   5.6172   9.4863   9.4863  10.1156  10.1157  10.5322

          k = 0.0833 0.2406 0.0000 (  4060 PWs)   bands (ev):

   -40.1185 -40.0673 -19.1661 -18.9949 -18.9612 -18.9138 -18.8558 -18.8409
     4.7623   7.9082   8.6963   9.3705  10.2551  10.4612  10.7544

          k = 0.0833 0.2406 0.0784 (  4061 PWs)   bands (ev):

   -40.1166 -40.0692 -19.1589 -18.9890 -18.9652 -18.9170 -18.8589 -18.8443
     4.8519   7.7563   8.6922   9.3981  10.2644  10.3824  10.6768

          k = 0.0833 0.2406 0.1568 (  4065 PWs)   bands (ev):

   -40.1111 -40.0748 -19.1379 -18.9896 -18.9659 -18.9177 -18.8676 -18.8557
     5.1152   7.3073   8.7870   9.4736  10.0858  10.3008  10.6261

          k = 0.0833 0.2406 0.2353 (  4069 PWs)   bands (ev):

   -40.1028 -40.0831 -19.1054 -19.0236 -18.9410 -18.9111 -18.8807 -18.8737
     5.5350   6.7001   9.0097   9.5178   9.8709  10.1405  10.6778

          k = 0.0833 0.2406-0.3137 (  4066 PWs)   bands (ev):

   -40.0930 -40.0930 -19.0653 -19.0653 -18.9147 -18.9147 -18.8880 -18.8880
     6.0804   6.0804   9.3002   9.3003   9.9457   9.9457  10.7834

          k = 0.0833 0.3368 0.0000 (  4077 PWs)   bands (ev):

   -40.1048 -40.0635 -19.1247 -19.0631 -19.0159 -18.9454 -18.8696 -18.8632
     5.5301   8.2266   8.4408   8.9949  10.1513  10.2052  10.5104

          k = 0.0833 0.3368 0.0784 (  4077 PWs)   bands (ev):

   -40.1032 -40.0651 -19.1318 -19.0492 -19.0193 -18.9452 -18.8743 -18.8623
     5.6066   8.0780   8.4830   9.0326  10.0613  10.2714  10.4930

          k = 0.0833 0.3368 0.1568 (  4072 PWs)   bands (ev):

   -40.0988 -40.0696 -19.1374 -19.0547 -18.9987 -18.9405 -18.8849 -18.8662
     5.8309   7.6811   8.6309   9.1228   9.9187  10.2206  10.5629

          k = 0.0833 0.3368 0.2353 (  4067 PWs)   bands (ev):

   -40.0921 -40.0763 -19.1307 -19.0832 -18.9605 -18.9296 -18.8988 -18.8800
     6.1875   7.1693   8.8567   9.1952   9.7847  10.0278  10.7526

          k = 0.0833 0.3368-0.3137 (  4068 PWs)   bands (ev):

   -40.0842 -40.0842 -19.1113 -19.1113 -18.9307 -18.9307 -18.8994 -18.8994
     6.6485   6.6485   9.0929   9.0929   9.8294   9.8296  10.9899

          k = 0.0833 0.4330 0.0000 (  4079 PWs)   bands (ev):

   -40.0916 -40.0615 -19.1234 -19.0807 -19.0637 -18.9698 -18.8906 -18.8815
     6.3937   8.1981   8.2573   8.7311  10.0375  10.2780  10.3212

          k = 0.0833 0.4330 0.0784 (  4082 PWs)   bands (ev):

   -40.0905 -40.0627 -19.1423 -19.0816 -19.0456 -18.9672 -18.8924 -18.8805
     6.4459   8.0660   8.3512   8.7822   9.9860  10.2615  10.3648

          k = 0.0833 0.4330 0.1568 (  4084 PWs)   bands (ev):

   -40.0872 -40.0659 -19.1621 -19.1057 -19.0039 -18.9569 -18.9017 -18.8790
     6.5987   7.8126   8.5204   8.8952   9.8825  10.1544  10.5178

          k = 0.0833 0.4330 0.2353 (  4077 PWs)   bands (ev):

   -40.0823 -40.0708 -19.1676 -19.1346 -18.9678 -18.9384 -18.9148 -18.8858
     6.8401   7.4887   8.7442   8.9891   9.7955   9.9684  10.7689

          k = 0.0833 0.4330-0.3137 (  4068 PWs)   bands (ev):

   -40.0766 -40.0766 -19.1575 -19.1575 -18.9431 -18.9431 -18.9039 -18.9039
     7.1484   7.1484   8.9431   8.9431   9.8129   9.8130  11.0945

          k = 0.0833 0.5292 0.0000 (  4075 PWs)   bands (ev):

   -40.0827 -40.0616 -19.1583 -19.0914 -19.0471 -18.9832 -18.9146 -18.8885
     7.1522   7.9457   8.1634   8.5452   9.9720  10.1219  10.5185

          k = 0.0833 0.5292 0.0784 (  4079 PWs)   bands (ev):

   -40.0819 -40.0624 -19.1694 -19.1045 -19.0299 -18.9777 -18.9118 -18.8896
     7.1569   7.8943   8.2657   8.5672   9.9874  10.1290  10.5054

          k = 0.0833 0.5292 0.1568 (  4078 PWs)   bands (ev):

   -40.0796 -40.0647 -19.1864 -19.1334 -18.9992 -18.9594 -18.9151 -18.8886
     7.1885   7.7691   8.4849   8.6723   9.9879  10.0677  10.5780

          k = 0.0833 0.5292 0.2353 (  4081 PWs)   bands (ev):

   -40.0762 -40.0681 -19.1934 -19.1637 -18.9733 -18.9345 -18.9260 -18.8905
     7.2723   7.5930   8.7234   8.8468   9.8812   9.9532  10.8211

          k = 0.0833 0.5292-0.3137 (  4092 PWs)   bands (ev):

   -40.0722 -40.0722 -19.1855 -19.1855 -18.9509 -18.9509 -18.9042 -18.9042
     7.4136   7.4136   8.8918   8.8918   9.8449   9.8449  11.1718

          k = 0.1667 0.2887 0.0000 (  4067 PWs)   bands (ev):

   -40.1067 -40.0639 -19.1307 -19.0331 -19.0254 -18.9340 -18.8794 -18.8597
     5.4164   8.2633   8.4957   8.9988  10.1416  10.1608  10.5992

          k = 0.1667 0.2887 0.0784 (  4068 PWs)   bands (ev):

   -40.1051 -40.0656 -19.1327 -19.0295 -19.0197 -18.9391 -18.8824 -18.8591
     5.4961   8.1098   8.5255   9.0325  10.1105  10.1909  10.5445

          k = 0.1667 0.2887 0.1568 (  4082 PWs)   bands (ev):

   -40.1005 -40.0702 -19.1318 -19.0448 -18.9884 -18.9448 -18.8905 -18.8627
     5.7301   7.6828   8.6674   9.1254   9.9609  10.1816  10.5361

          k = 0.1667 0.2887 0.2353 (  4079 PWs)   bands (ev):

   -40.0935 -40.0772 -19.1209 -19.0710 -18.9539 -18.9417 -18.8998 -18.8761
     6.1029   7.1366   8.8951   9.2232   9.7779   9.9867  10.7099

          k = 0.1667 0.2887-0.3137 (  4072 PWs)   bands (ev):

   -40.0854 -40.0854 -19.0992 -19.0992 -18.9369 -18.9369 -18.8957 -18.8957
     6.5866   6.5866   9.1387   9.1387   9.7859   9.7860  10.9336

          k = 0.1667 0.3849 0.0000 (  4083 PWs)   bands (ev):

   -40.0938 -40.0617 -19.0888 -19.0886 -19.0599 -18.9665 -18.9018 -18.8853
     6.2279   8.3440   8.4191   8.6997   9.9484  10.2281  10.3576

          k = 0.1667 0.3849 0.0784 (  4085 PWs)   bands (ev):

   -40.0926 -40.0629 -19.1187 -19.0797 -19.0356 -18.9712 -18.9060 -18.8797
     6.2911   8.2250   8.4788   8.7450   9.9121  10.2521  10.3069

          k = 0.1667 0.3849 0.1568 (  4082 PWs)   bands (ev):

   -40.0891 -40.0664 -19.1392 -19.0936 -18.9972 -18.9720 -18.9145 -18.8742
     6.4760   7.9367   8.6238   8.8541   9.8163  10.0735  10.4323

          k = 0.1667 0.3849 0.2353 (  4082 PWs)   bands (ev):

   -40.0839 -40.0716 -19.1448 -19.1159 -18.9766 -18.9577 -18.9163 -18.8792
     6.7678   7.5498   8.8259   8.9799   9.6880   9.8304  10.6655

          k = 0.1667 0.3849-0.3137 (  4078 PWs)   bands (ev):

   -40.0777 -40.0777 -19.1357 -19.1357 -18.9628 -18.9628 -18.8967 -18.8967
     7.1397   7.1397   8.9948   8.9949   9.6570   9.6573  10.9746

          k = 0.1667 0.4811 0.0000 (  4088 PWs)   bands (ev):

   -40.0828 -40.0616 -19.1318 -19.0761 -19.0477 -18.9979 -18.9169 -18.9139
     7.0541   8.2450   8.2564   8.5333   9.8650  10.1071  10.4859

          k = 0.1667 0.4811 0.0784 (  4086 PWs)   bands (ev):

   -40.0820 -40.0624 -19.1422 -19.0926 -19.0302 -18.9924 -18.9257 -18.9011
     7.0893   8.1448   8.3474   8.6047   9.8372  10.0440  10.5045

          k = 0.1667 0.4811 0.1568 (  4084 PWs)   bands (ev):

   -40.0797 -40.0647 -19.1598 -19.1181 -19.0165 -18.9673 -18.9344 -18.8875
     7.1926   7.9877   8.5095   8.7653   9.7481   9.8694  10.5925

          k = 0.1667 0.4811 0.2353 (  4090 PWs)   bands (ev):

   -40.0762 -40.0681 -19.1685 -19.1444 -19.0019 -18.9653 -18.9188 -18.8840
     7.3562   7.7852   8.7383   8.9341   9.6189   9.6378  10.7803

          k = 0.1667 0.4811-0.3137 (  4086 PWs)   bands (ev):

   -40.0722 -40.0722 -19.1630 -19.1630 -18.9833 -18.9833 -18.8950 -18.8950
     7.5632   7.5632   8.9474   8.9474   9.5241   9.5241  11.0646

          k = 0.1667 0.5774 0.0000 (  4073 PWs)   bands (ev):

   -40.0778 -40.0624 -19.1473 -19.0804 -19.0270 -19.0114 -18.9302 -18.9222
     7.5570   8.0281   8.2286   8.4384   9.9092   9.9406  10.6142

          k = 0.1667 0.5774 0.0784 (  4086 PWs)   bands (ev):

   -40.0772 -40.0630 -19.1556 -19.0941 -19.0328 -18.9875 -18.9374 -18.9107
     7.5488   8.0152   8.3207   8.4707   9.8727   9.9051  10.6274

          k = 0.1667 0.5774 0.1568 (  4090 PWs)   bands (ev):

   -40.0756 -40.0647 -19.1707 -19.1240 -19.0272 -18.9509 -18.9503 -18.8945
     7.5551   7.9536   8.5520   8.5910   9.7660   9.7726  10.7051

          k = 0.1667 0.5774 0.2353 (  4087 PWs)   bands (ev):

   -40.0731 -40.0672 -19.1787 -19.1535 -19.0115 -18.9695 -18.9165 -18.8869
     7.6095   7.8401   8.7980   8.8355   9.5537   9.5940  10.8839

          k = 0.1667 0.5774-0.3137 (  4098 PWs)   bands (ev):

   -40.0701 -40.0701 -19.1731 -19.1731 -18.9909 -18.9909 -18.8941 -18.8941
     7.7124   7.7124   8.9780   8.9781   9.4318   9.4321  11.1535

          k = 0.2500 0.4330 0.0000 (  4111 PWs)   bands (ev):

   -40.0828 -40.0615 -19.1091 -19.0793 -19.0481 -18.9973 -18.9378 -18.9136
     7.0183   8.3093   8.4406   8.4821   9.7891  10.1171  10.4527

          k = 0.2500 0.4330 0.0784 (  4095 PWs)   bands (ev):

   -40.0820 -40.0623 -19.1110 -19.1071 -19.0161 -19.0074 -18.9402 -18.9031
     7.0651   8.2473   8.4777   8.5583   9.7730  10.0128  10.4629

          k = 0.2500 0.4330 0.1568 (  4087 PWs)   bands (ev):

   -40.0797 -40.0646 -19.1354 -19.1202 -19.0185 -18.9833 -18.9394 -18.8874
     7.2002   8.1095   8.5874   8.7168   9.7064   9.7693  10.5199

          k = 0.2500 0.4330 0.2353 (  4087 PWs)   bands (ev):

   -40.0762 -40.0681 -19.1499 -19.1363 -19.0147 -18.9846 -18.9160 -18.8822
     7.4069   7.9052   8.7577   8.8933   9.5115   9.5702  10.6794

          k = 0.2500 0.4330-0.3137 (  4088 PWs)   bands (ev):

   -40.0722 -40.0722 -19.1490 -19.1490 -19.0004 -19.0004 -18.8922 -18.8922
     7.6560   7.6560   8.9262   8.9262   9.4299   9.4299  10.9649

          k = 0.2500 0.5292 0.0000 (  4082 PWs)   bands (ev):

   -40.0744 -40.0635 -19.1242 -19.0681 -19.0320 -19.0118 -18.9605 -18.9428
     7.7097   8.2583   8.3111   8.3768   9.7633   9.8915  10.6767

          k = 0.2500 0.5292 0.0784 (  4084 PWs)   bands (ev):

   -40.0740 -40.0639 -19.1272 -19.0868 -19.0473 -18.9868 -18.9646 -18.9263
     7.7379   8.2313   8.3436   8.4654   9.7229   9.7964  10.6809

          k = 0.2500 0.5292 0.1568 (  4092 PWs)   bands (ev):

   -40.0728 -40.0651 -19.1394 -19.1139 -19.0570 -18.9866 -18.9393 -18.9021
     7.8159   8.1879   8.4676   8.6487   9.5468   9.6088  10.7163

          k = 0.2500 0.5292 0.2353 (  4100 PWs)   bands (ev):

   -40.0710 -40.0668 -19.1517 -19.1379 -19.0470 -19.0053 -18.9077 -18.8878
     7.9248   8.1282   8.6721   8.8864   9.2467   9.4058  10.8306

          k = 0.2500 0.5292-0.3137 (  4100 PWs)   bands (ev):

   -40.0689 -40.0689 -19.1519 -19.1519 -19.0273 -19.0273 -18.8893 -18.8893
     8.0377   8.0377   8.9375   8.9375   9.1556   9.1556  11.0604

          k = 0.3333 0.5774 0.0000 (  4077 PWs)   bands (ev):

   -40.0678 -40.0678 -19.1147 -19.0533 -19.0533 -18.9862 -18.9760 -18.9760
     8.1585   8.1585   8.2609   8.3475   9.7601   9.7601  10.7714

          k = 0.3333 0.5774 0.0784 (  4104 PWs)   bands (ev):

   -40.0678 -40.0678 -19.1099 -19.0747 -19.0747 -18.9912 -18.9544 -18.9544
     8.2042   8.2042   8.2798   8.3660   9.6825   9.6825  10.7701

          k = 0.3333 0.5774 0.1568 (  4077 PWs)   bands (ev):

   -40.0678 -40.0678 -19.1077 -19.1077 -19.0961 -19.0053 -18.9208 -18.9208
     8.3302   8.3346   8.3346   8.4088   9.4820   9.4820  10.7871

          k = 0.3333 0.5774 0.2353 (  4104 PWs)   bands (ev):

   -40.0678 -40.0678 -19.1316 -19.1316 -19.0754 -19.0263 -18.8962 -18.8962
     8.3926   8.4430   8.5224   8.5224   9.2320   9.2320  10.8736

          k = 0.3333 0.5774-0.3137 (  4128 PWs)   bands (ev):

   -40.0678 -40.0678 -19.1402 -19.1402 -19.0509 -19.0509 -18.8874 -18.8874
     8.4382   8.4382   8.6530   8.6530   9.0774   9.0775  11.0782

     the Fermi energy is     8.8068 ev

!    total energy              =    -306.87292832 Ry
     total all-electron energy =     -3050.013699 Ry
     estimated scf accuracy    <          1.2E-09 Ry
     smearing contrib. (-TS)   =       0.00008386 Ry
     internal energy E=F+TS    =    -306.87301218 Ry

     The total energy is F=E-TS. E is the sum of the following terms:
     one-electron contribution =     -74.40771992 Ry
     hartree contribution      =      42.28461584 Ry
     xc contribution           =     -34.52707143 Ry
     ewald contribution        =    -126.46581261 Ry
     one-center paw contrib.   =    -113.75702405 Ry

     convergence has been achieved in  14 iterations

     Writing all to output data dir sc_smearing.out/scandium.save/

     init_run     :      0.87s CPU      0.90s WALL (       1 calls)
     electrons    :     32.25s CPU     34.49s WALL (       1 calls)

     Called by init_run:
     wfcinit      :      0.68s CPU      0.70s WALL (       1 calls)
     potinit      :      0.06s CPU      0.06s WALL (       1 calls)
     hinit0       :      0.11s CPU      0.11s WALL (       1 calls)

     Called by electrons:
     c_bands      :     28.95s CPU     31.08s WALL (      15 calls)
     sum_band     :      2.71s CPU      2.79s WALL (      15 calls)
     v_of_rho     :      0.01s CPU      0.01s WALL (      15 calls)
     newd         :      0.14s CPU      0.14s WALL (      15 calls)
     PAW_pot      :      0.45s CPU      0.45s WALL (      15 calls)
     mix_rho      :      0.01s CPU      0.01s WALL (      15 calls)

     Called by c_bands:
     init_us_2    :      0.34s CPU      0.36s WALL (    2945 calls)
     init_us_2:cp :      0.33s CPU      0.36s WALL (    2945 calls)
     cegterg      :     28.18s CPU     29.02s WALL (    1426 calls)

     Called by *egterg:
     cdiaghg      :      3.18s CPU      3.26s WALL (   10867 calls)
     h_psi        :     18.90s CPU     19.57s WALL (   11058 calls)
     s_psi        :      1.26s CPU      1.29s WALL (   11058 calls)
     g_psi        :      0.12s CPU      0.12s WALL (    9537 calls)

     Called by h_psi:
     h_psi:calbec :      1.56s CPU      1.61s WALL (   11058 calls)
     vloc_psi     :     15.99s CPU     16.58s WALL (   11058 calls)
     add_vuspsi   :      1.25s CPU      1.28s WALL (   11058 calls)

     General routines
     calbec       :      1.89s CPU      1.96s WALL (   12483 calls)
     fft          :      0.01s CPU      0.01s WALL (      61 calls)
     ffts         :      0.00s CPU      0.00s WALL (      15 calls)
     fftw         :     16.63s CPU     17.24s WALL (  196841 calls)

     Parallel routines

     PWSCF        :     33.53s CPU     36.17s WALL


   This run was terminated on:  15:52:50  26Jul2023            

=------------------------------------------------------------------------------=
   JOB DONE.
=------------------------------------------------------------------------------=
