
     Program PWSCF v.7.2 starts on 26Jul2023 at 14:51: 9 

     This program is part of the open-source Quantum ESPRESSO suite
     for quantum simulation of materials; please cite
         "P. Giannozzi et al., J. Phys.:Condens. Matter 21 395502 (2009);
         "P. Giannozzi et al., J. Phys.:Condens. Matter 29 465901 (2017);
         "P. Giannozzi et al., J. Chem. Phys. 152 154105 (2020);
          URL http://www.quantum-espresso.org", 
     in publications or presentations arising from this work. More details at
     http://www.quantum-espresso.org/quote

     Parallel version (MPI), running on    20 processors

     MPI processes distributed on     1 nodes
     316379 MiB available memory on the printing compute node when the environment starts

     Waiting for input...
     Reading input from standard input

     Current dimensions of program PWSCF are:
     Max number of different atomic species (ntypx) = 10
     Max number of k-points (npk) = 120000
     Max angular momentum in pseudopotentials (lmaxx) =  4
     file Sc.pz-spn-kjpaw_psl.1.0.0.UPF: wavefunction(s)  3S 3P 3D renormalized

     R & G space division:  proc/nbgrp/npool/nimage =      20
     Subspace diagonalization in iterative solution of the eigenvalue problem:
     a serial algorithm will be used


     Parallelization info
     --------------------
     sticks:   dense  smooth     PW     G-vecs:    dense   smooth      PW
     Min          42      42     12                 1626     1626     256
     Max          43      43     13                 1637     1637     263
     Sum         859     859    253                32631    32631    5203

     Using Slab Decomposition



     bravais-lattice index     =            4
     lattice parameter (alat)  =       6.2531  a.u.
     unit-cell volume          =     337.5249 (a.u.)^3
     number of atoms/cell      =            2
     number of atomic types    =            1
     number of electrons       =        22.00
     number of Kohn-Sham states=           15
     kinetic-energy cutoff     =      80.0000  Ry
     charge density cutoff     =     320.0000  Ry
     scf convergence threshold =      1.0E-08
     mixing beta               =       0.7000
     number of iterations used =            8  plain     mixing
     Exchange-correlation= SLA  PZ   NOGX NOGC
                           (   1   1   0   0   0   0   0)

     celldm(1)=   6.253104  celldm(2)=   0.000000  celldm(3)=   1.594000
     celldm(4)=   0.000000  celldm(5)=   0.000000  celldm(6)=   0.000000

     crystal axes: (cart. coord. in units of alat)
               a(1) = (   1.000000   0.000000   0.000000 )  
               a(2) = (  -0.500000   0.866025   0.000000 )  
               a(3) = (   0.000000   0.000000   1.594000 )  

     reciprocal axes: (cart. coord. in units 2 pi/alat)
               b(1) = (  1.000000  0.577350 -0.000000 )  
               b(2) = (  0.000000  1.154701  0.000000 )  
               b(3) = (  0.000000 -0.000000  0.627353 )  


     PseudoPot. # 1 for Sc read from file:
     ../../../Sc.pz-spn-kjpaw_psl.1.0.0.UPF
     MD5 check sum: 1f9095df0bb42a6568b4e9f256ff075f
     Pseudo is Projector augmented-wave + core cor, Zval = 11.0
     Generated using 'atomic' code by A. Dal Corso  v.7.1
     Shape of augmentation charge: PSQ
     Using radial grid of 1173 points,  6 beta functions with: 
                l(1) =   0
                l(2) =   0
                l(3) =   1
                l(4) =   1
                l(5) =   2
                l(6) =   2
     Q(r) pseudized with 0 coefficients 


     atomic species   valence    mass     pseudopotential
        Sc            11.00    44.59600     Sc( 1.00)

     24 Sym. Ops., with inversion, found (12 have fractional translation)



   Cartesian axes

     site n.     atom                  positions (alat units)
         1           Sc  tau(   1) = (   0.0000000   0.0000000   0.0000000  )
         2           Sc  tau(   2) = (   0.5000000   0.2886751   0.7970000  )

     number of k points=    48  Marzari-Vanderbilt smearing, width (Ry)=  0.0200
                       cart. coord. in units 2pi/alat
        k(    1) = (   0.0000000   0.0000000   0.0000000), wk =   0.0041152
        k(    2) = (   0.0000000   0.0000000   0.1045588), wk =   0.0082305
        k(    3) = (   0.0000000   0.0000000   0.2091175), wk =   0.0082305
        k(    4) = (   0.0000000   0.0000000  -0.3136763), wk =   0.0041152
        k(    5) = (   0.0000000   0.1283001   0.0000000), wk =   0.0246914
        k(    6) = (   0.0000000   0.1283001   0.1045588), wk =   0.0493827
        k(    7) = (   0.0000000   0.1283001   0.2091175), wk =   0.0493827
        k(    8) = (   0.0000000   0.1283001  -0.3136763), wk =   0.0246914
        k(    9) = (   0.0000000   0.2566001   0.0000000), wk =   0.0246914
        k(   10) = (   0.0000000   0.2566001   0.1045588), wk =   0.0493827
        k(   11) = (   0.0000000   0.2566001   0.2091175), wk =   0.0493827
        k(   12) = (   0.0000000   0.2566001  -0.3136763), wk =   0.0246914
        k(   13) = (   0.0000000   0.3849002   0.0000000), wk =   0.0246914
        k(   14) = (   0.0000000   0.3849002   0.1045588), wk =   0.0493827
        k(   15) = (   0.0000000   0.3849002   0.2091175), wk =   0.0493827
        k(   16) = (   0.0000000   0.3849002  -0.3136763), wk =   0.0246914
        k(   17) = (   0.0000000   0.5132002   0.0000000), wk =   0.0246914
        k(   18) = (   0.0000000   0.5132002   0.1045588), wk =   0.0493827
        k(   19) = (   0.0000000   0.5132002   0.2091175), wk =   0.0493827
        k(   20) = (   0.0000000   0.5132002  -0.3136763), wk =   0.0246914
        k(   21) = (   0.1111111   0.1924501   0.0000000), wk =   0.0246914
        k(   22) = (   0.1111111   0.1924501   0.1045588), wk =   0.0493827
        k(   23) = (   0.1111111   0.1924501   0.2091175), wk =   0.0493827
        k(   24) = (   0.1111111   0.1924501  -0.3136763), wk =   0.0246914
        k(   25) = (   0.1111111   0.3207501   0.0000000), wk =   0.0493827
        k(   26) = (   0.1111111   0.3207501   0.1045588), wk =   0.0987654
        k(   27) = (   0.1111111   0.3207501   0.2091175), wk =   0.0987654
        k(   28) = (   0.1111111   0.3207501  -0.3136763), wk =   0.0493827
        k(   29) = (   0.1111111   0.4490502   0.0000000), wk =   0.0493827
        k(   30) = (   0.1111111   0.4490502   0.1045588), wk =   0.0987654
        k(   31) = (   0.1111111   0.4490502   0.2091175), wk =   0.0987654
        k(   32) = (   0.1111111   0.4490502  -0.3136763), wk =   0.0493827
        k(   33) = (   0.1111111   0.5773503   0.0000000), wk =   0.0246914
        k(   34) = (   0.1111111   0.5773503   0.1045588), wk =   0.0493827
        k(   35) = (   0.1111111   0.5773503   0.2091175), wk =   0.0493827
        k(   36) = (   0.1111111   0.5773503  -0.3136763), wk =   0.0246914
        k(   37) = (   0.2222222   0.3849002   0.0000000), wk =   0.0246914
        k(   38) = (   0.2222222   0.3849002   0.1045588), wk =   0.0493827
        k(   39) = (   0.2222222   0.3849002   0.2091175), wk =   0.0493827
        k(   40) = (   0.2222222   0.3849002  -0.3136763), wk =   0.0246914
        k(   41) = (   0.2222222   0.5132002   0.0000000), wk =   0.0493827
        k(   42) = (   0.2222222   0.5132002   0.1045588), wk =   0.0987654
        k(   43) = (   0.2222222   0.5132002   0.2091175), wk =   0.0987654
        k(   44) = (   0.2222222   0.5132002  -0.3136763), wk =   0.0493827
        k(   45) = (   0.3333333   0.5773503   0.0000000), wk =   0.0082305
        k(   46) = (   0.3333333   0.5773503   0.1045588), wk =   0.0164609
        k(   47) = (   0.3333333   0.5773503   0.2091175), wk =   0.0164609
        k(   48) = (   0.3333333   0.5773503  -0.3136763), wk =   0.0082305

     Dense  grid:    32631 G-vectors     FFT dimensions: (  36,  36,  60)

     Estimated max dynamical RAM per process >       9.47 MB

     Estimated total dynamical RAM >     189.35 MB

     Check: negative core charge=   -0.000015

     Initial potential from superposition of free atoms

     starting charge      21.9956, renormalised to      22.0000
     Starting wfcs are   20 randomized atomic wfcs
     Checking if some PAW data can be deallocated... 

     total cpu time spent up to now is        0.7 secs

     Self-consistent Calculation

     iteration #  1     ecut=    80.00 Ry     beta= 0.70
     Davidson diagonalization with overlap
     ethr =  1.00E-02,  avg # of iterations =  2.4

     Threshold (ethr) on eigenvalues was too large:
     Diagonalizing with lowered threshold

     Davidson diagonalization with overlap
     c_bands:  3 eigenvalues not converged
     c_bands:  1 eigenvalues not converged
     c_bands:  1 eigenvalues not converged
     c_bands:  1 eigenvalues not converged
     c_bands:  1 eigenvalues not converged
     c_bands:  5 eigenvalues not converged
     c_bands:  1 eigenvalues not converged
     c_bands:  1 eigenvalues not converged
     c_bands:  1 eigenvalues not converged
     c_bands:  2 eigenvalues not converged
     c_bands:  5 eigenvalues not converged
     c_bands:  3 eigenvalues not converged
     c_bands:  1 eigenvalues not converged
     c_bands:  1 eigenvalues not converged
     ethr =  1.71E-05,  avg # of iterations = 17.9

     total cpu time spent up to now is        4.5 secs

     total energy              =    -306.86689548 Ry
     estimated scf accuracy    <       0.02035526 Ry

     iteration #  2     ecut=    80.00 Ry     beta= 0.70
     Davidson diagonalization with overlap
     ethr =  9.25E-05,  avg # of iterations =  4.3

     total cpu time spent up to now is        5.4 secs

     total energy              =    -306.87181795 Ry
     estimated scf accuracy    <       0.00145557 Ry

     iteration #  3     ecut=    80.00 Ry     beta= 0.70
     Davidson diagonalization with overlap
     c_bands:  2 eigenvalues not converged
     c_bands:  1 eigenvalues not converged
     ethr =  6.62E-06,  avg # of iterations =  8.7

     total cpu time spent up to now is        6.7 secs

     total energy              =    -306.87293821 Ry
     estimated scf accuracy    <       0.00036678 Ry

     iteration #  4     ecut=    80.00 Ry     beta= 0.70
     Davidson diagonalization with overlap
     ethr =  1.67E-06,  avg # of iterations =  6.9

     total cpu time spent up to now is        7.8 secs

     total energy              =    -306.87314497 Ry
     estimated scf accuracy    <       0.00018829 Ry

     iteration #  5     ecut=    80.00 Ry     beta= 0.70
     Davidson diagonalization with overlap
     ethr =  8.56E-07,  avg # of iterations =  6.2

     total cpu time spent up to now is        8.8 secs

     total energy              =    -306.87323762 Ry
     estimated scf accuracy    <       0.00001945 Ry

     iteration #  6     ecut=    80.00 Ry     beta= 0.70
     Davidson diagonalization with overlap
     ethr =  8.84E-08,  avg # of iterations =  8.4

     total cpu time spent up to now is        9.9 secs

     total energy              =    -306.87324183 Ry
     estimated scf accuracy    <       0.00002170 Ry

     iteration #  7     ecut=    80.00 Ry     beta= 0.70
     Davidson diagonalization with overlap
     ethr =  8.84E-08,  avg # of iterations =  3.7

     total cpu time spent up to now is       10.7 secs

     total energy              =    -306.87324547 Ry
     estimated scf accuracy    <       0.00000067 Ry

     iteration #  8     ecut=    80.00 Ry     beta= 0.70
     Davidson diagonalization with overlap
     c_bands:  1 eigenvalues not converged
     ethr =  3.06E-09,  avg # of iterations = 14.1

     total cpu time spent up to now is       12.6 secs

     total energy              =    -306.87324912 Ry
     estimated scf accuracy    <       0.00000151 Ry

     iteration #  9     ecut=    80.00 Ry     beta= 0.70
     Davidson diagonalization with overlap
     ethr =  3.06E-09,  avg # of iterations =  1.2

     total cpu time spent up to now is       13.2 secs

     total energy              =    -306.87324886 Ry
     estimated scf accuracy    <       0.00000138 Ry

     iteration # 10     ecut=    80.00 Ry     beta= 0.70
     Davidson diagonalization with overlap
     ethr =  3.06E-09,  avg # of iterations =  1.2

     total cpu time spent up to now is       13.8 secs

     total energy              =    -306.87324827 Ry
     estimated scf accuracy    <       0.00000089 Ry

     iteration # 11     ecut=    80.00 Ry     beta= 0.70
     Davidson diagonalization with overlap
     ethr =  3.06E-09,  avg # of iterations =  6.2

     total cpu time spent up to now is       14.8 secs

     total energy              =    -306.87324866 Ry
     estimated scf accuracy    <       0.00000005 Ry

     iteration # 12     ecut=    80.00 Ry     beta= 0.70
     Davidson diagonalization with overlap
     ethr =  2.43E-10,  avg # of iterations =  9.3

     total cpu time spent up to now is       16.0 secs

     total energy              =    -306.87324869 Ry
     estimated scf accuracy    <       0.00000008 Ry

     iteration # 13     ecut=    80.00 Ry     beta= 0.70
     Davidson diagonalization with overlap
     ethr =  2.43E-10,  avg # of iterations =  1.3

     total cpu time spent up to now is       16.6 secs

     total energy              =    -306.87324868 Ry
     estimated scf accuracy    <       0.00000005 Ry

     iteration # 14     ecut=    80.00 Ry     beta= 0.70
     Davidson diagonalization with overlap
     ethr =  2.09E-10,  avg # of iterations =  1.6

     total cpu time spent up to now is       17.3 secs

     total energy              =    -306.87324867 Ry
     estimated scf accuracy    <       0.00000003 Ry

     iteration # 15     ecut=    80.00 Ry     beta= 0.70
     Davidson diagonalization with overlap
     ethr =  1.20E-10,  avg # of iterations =  4.0

     total cpu time spent up to now is       18.1 secs

     End of self-consistent calculation

          k = 0.0000 0.0000 0.0000 (  4055 PWs)   bands (ev):

   -40.1390 -40.0746 -19.2237 -18.8905 -18.8905 -18.8321 -18.8321 -18.8147
     3.7531   7.1393   9.3008  10.3503  10.3503  10.4607  10.7539

          k = 0.0000 0.0000 0.1046 (  4061 PWs)   bands (ev):

   -40.1347 -40.0790 -19.1971 -18.8866 -18.8866 -18.8430 -18.8361 -18.8361
     3.9323   6.8674   9.2604  10.2842  10.2842  10.3468  10.6592

          k = 0.0000 0.0000 0.2091 (  4078 PWs)   bands (ev):

   -40.1230 -40.0908 -19.1240 -18.9196 -18.8760 -18.8760 -18.8468 -18.8468
     4.4483   6.1294   9.3563  10.0434  10.2296  10.2297  10.4602

          k = 0.0000 0.0000-0.3137 (  4060 PWs)   bands (ev):

   -40.1069 -40.1069 -19.0226 -19.0226 -18.8614 -18.8614 -18.8614 -18.8614
     5.2301   5.2301   9.6633   9.6633  10.2912  10.2912  10.2912

          k = 0.0000 0.1283 0.0000 (  4073 PWs)   bands (ev):

   -40.1332 -40.0723 -19.2081 -18.9224 -18.9010 -18.8653 -18.8367 -18.8213
     4.0203   7.3658   9.0907   9.9527  10.5445  10.5732  10.7580

          k = 0.0000 0.1283 0.1046 (  4060 PWs)   bands (ev):

   -40.1291 -40.0764 -19.1845 -18.9172 -18.8967 -18.8817 -18.8411 -18.8352
     4.1949   7.0923   9.0623   9.9646  10.4246  10.4438  10.5581

          k = 0.0000 0.1283 0.2091 (  4065 PWs)   bands (ev):

   -40.1180 -40.0876 -19.1196 -18.9415 -18.9018 -18.8850 -18.8587 -18.8529
     4.6981   6.3516   9.1994   9.9873  10.0424  10.3750  10.4009

          k = 0.0000 0.1283-0.3137 (  4070 PWs)   bands (ev):

   -40.1028 -40.1028 -19.0302 -19.0302 -18.8813 -18.8813 -18.8690 -18.8690
     5.4634   5.4634   9.5526   9.5527  10.1855  10.1858  10.4376

          k = 0.0000 0.2566 0.0000 (  4069 PWs)   bands (ev):

   -40.1179 -40.0668 -19.1655 -19.0040 -18.9468 -18.9266 -18.8493 -18.8414
     4.7753   7.8997   8.6808   9.3810  10.2415  10.5575  10.6468

          k = 0.0000 0.2566 0.1046 (  4071 PWs)   bands (ev):

   -40.1145 -40.0703 -19.1533 -18.9931 -18.9627 -18.9214 -18.8545 -18.8492
     4.9332   7.6293   8.6960   9.4287  10.1984  10.4089  10.6239

          k = 0.0000 0.2566 0.2091 (  4073 PWs)   bands (ev):

   -40.1052 -40.0796 -19.1187 -19.0131 -18.9542 -18.9074 -18.8739 -18.8687
     5.3893   6.9102   8.9138   9.5198   9.9234  10.2238  10.6529

          k = 0.0000 0.2566-0.3137 (  4064 PWs)   bands (ev):

   -40.0924 -40.0924 -19.0679 -19.0679 -18.9124 -18.9124 -18.8881 -18.8881
     6.0866   6.0866   9.2854   9.2854   9.9685   9.9686  10.7916

          k = 0.0000 0.3849 0.0000 (  4090 PWs)   bands (ev):

   -40.0990 -40.0621 -19.1074 -19.0979 -19.0358 -18.9543 -18.8736 -18.8647
     5.8645   8.1838   8.3324   8.9110  10.2109  10.2190  10.3539

          k = 0.0000 0.3849 0.1046 (  4081 PWs)   bands (ev):

   -40.0966 -40.0646 -19.1413 -19.0649 -19.0342 -18.9484 -18.8742 -18.8708
     5.9830   7.9479   8.4459   8.9799  10.0149  10.2971  10.4415

          k = 0.0000 0.3849 0.2091 (  4079 PWs)   bands (ev):

   -40.0898 -40.0713 -19.1528 -19.0997 -18.9756 -18.9321 -18.8873 -18.8864
     6.3233   7.4293   8.7068   9.0876   9.8504  10.1428  10.6935

          k = 0.0000 0.3849-0.3137 (  4070 PWs)   bands (ev):

   -40.0806 -40.0806 -19.1363 -19.1363 -18.9210 -18.9210 -18.9097 -18.9097
     6.8365   6.8365   9.0009   9.0009   9.8950   9.8951  11.0735

          k = 0.0000 0.5132 0.0000 (  4082 PWs)   bands (ev):

   -40.0846 -40.0611 -19.1595 -19.0921 -19.0560 -18.9720 -18.9081 -18.8752
     6.9591   7.9244   8.1456   8.6004  10.0150  10.1854  10.4788

          k = 0.0000 0.5132 0.1046 (  4078 PWs)   bands (ev):

   -40.0830 -40.0627 -19.1783 -19.1138 -19.0217 -18.9655 -18.9014 -18.8817
     6.9843   7.8133   8.3140   8.6362  10.0662  10.2987  10.3731

          k = 0.0000 0.5132 0.2091 (  4076 PWs)   bands (ev):

   -40.0787 -40.0670 -19.1957 -19.1551 -18.9646 -18.9479 -18.8995 -18.8988
     7.0881   7.5709   8.6218   8.8012  10.0693  10.1616  10.6284

          k = 0.0000 0.5132-0.3137 (  4086 PWs)   bands (ev):

   -40.0728 -40.0728 -19.1875 -19.1875 -18.9238 -18.9238 -18.9194 -18.9194
     7.2956   7.2956   8.8632   8.8632  10.0248  10.0248  11.1403

          k = 0.1111 0.1925 0.0000 (  4059 PWs)   bands (ev):

   -40.1226 -40.0684 -19.1790 -18.9703 -18.9455 -18.8990 -18.8515 -18.8347
     4.5329   7.7596   8.7991   9.5190  10.3395  10.5558  10.9511

          k = 0.1111 0.1925 0.1046 (  4065 PWs)   bands (ev):

   -40.1190 -40.0720 -19.1622 -18.9612 -18.9514 -18.9071 -18.8563 -18.8427
     4.6970   7.4854   8.7959   9.5616  10.3299  10.3766  10.6469

          k = 0.1111 0.1925 0.2091 (  4058 PWs)   bands (ev):

   -40.1091 -40.0820 -19.1160 -18.9892 -18.9367 -18.9068 -18.8690 -18.8650
     5.1711   6.7492   8.9921   9.6544   9.9554  10.2506  10.6017

          k = 0.1111 0.1925-0.3137 (  4064 PWs)   bands (ev):

   -40.0956 -40.0956 -19.0523 -19.0523 -18.9071 -18.9071 -18.8825 -18.8825
     5.8957   5.8957   9.3737   9.3737  10.0030  10.0032  10.6904

          k = 0.1111 0.3208 0.0000 (  4073 PWs)   bands (ev):

   -40.1055 -40.0634 -19.1282 -19.0506 -19.0158 -18.9400 -18.8734 -18.8613
     5.4671   8.2444   8.4699   9.0002  10.1450  10.1828  10.5574

          k = 0.1111 0.3208 0.1046 (  4072 PWs)   bands (ev):

   -40.1027 -40.0662 -19.1338 -19.0391 -19.0127 -18.9429 -18.8802 -18.8609
     5.6056   7.9784   8.5415   9.0619  10.0359  10.2528  10.5091

          k = 0.1111 0.3208 0.2091 (  4075 PWs)   bands (ev):

   -40.0950 -40.0739 -19.1297 -19.0665 -18.9697 -18.9370 -18.8952 -18.8720
     6.0051   7.3328   8.7949   9.1939   9.8216  10.0800  10.6642

          k = 0.1111 0.3208-0.3137 (  4078 PWs)   bands (ev):

   -40.0845 -40.0845 -19.1046 -19.1046 -18.9336 -18.9336 -18.8969 -18.8969
     6.6141   6.6141   9.1170   9.1170   9.8065   9.8065  10.9612

          k = 0.1111 0.4491 0.0000 (  4071 PWs)   bands (ev):

   -40.0883 -40.0610 -19.1277 -19.0703 -19.0695 -18.9773 -18.8978 -18.8910
     6.6041   8.2134   8.2486   8.6630   9.9738  10.2327  10.3705

          k = 0.1111 0.4491 0.1046 (  4088 PWs)   bands (ev):

   -40.0865 -40.0628 -19.1508 -19.0937 -19.0281 -18.9722 -18.9045 -18.8842
     6.6863   8.0227   8.3944   8.7582   9.9097  10.1724  10.4322

          k = 0.1111 0.4491 0.2091 (  4076 PWs)   bands (ev):

   -40.0815 -40.0678 -19.1690 -19.1304 -18.9845 -18.9479 -18.9191 -18.8818
     6.9226   7.6788   8.6624   8.9336   9.7775   9.9458  10.6803

          k = 0.1111 0.4491-0.3137 (  4078 PWs)   bands (ev):

   -40.0747 -40.0747 -19.1610 -19.1610 -18.9549 -18.9549 -18.9004 -18.9004
     7.2771   7.2771   8.9380   8.9380   9.7367   9.7367  11.0868

          k = 0.1111 0.5774 0.0000 (  4077 PWs)   bands (ev):

   -40.0800 -40.0616 -19.1582 -19.0905 -19.0379 -18.9918 -18.9218 -18.8979
     7.3837   7.9056   8.1735   8.4926   9.9513  10.0517  10.5648

          k = 0.1111 0.5774 0.1046 (  4077 PWs)   bands (ev):

   -40.0788 -40.0628 -19.1739 -19.1124 -19.0199 -18.9753 -18.9211 -18.8950
     7.3613   7.8685   8.3514   8.5258   9.9591  10.0227  10.5748

          k = 0.1111 0.5774 0.2091 (  4077 PWs)   bands (ev):

   -40.0754 -40.0662 -19.1908 -19.1538 -18.9923 -18.9370 -18.9346 -18.8881
     7.3853   7.7160   8.7040   8.7269   9.8286   9.8932  10.7771

          k = 0.1111 0.5774-0.3137 (  4086 PWs)   bands (ev):

   -40.0708 -40.0708 -19.1845 -19.1845 -18.9636 -18.9636 -18.9000 -18.9000
     7.5175   7.5175   8.9143   8.9143   9.7215   9.7215  11.1896

          k = 0.2222 0.3849 0.0000 (  4095 PWs)   bands (ev):

   -40.0897 -40.0610 -19.0897 -19.0757 -19.0728 -18.9743 -18.9162 -18.8940
     6.4803   8.3328   8.4942   8.5858   9.8739  10.2825  10.2868

          k = 0.2222 0.3849 0.1046 (  4094 PWs)   bands (ev):

   -40.0878 -40.0629 -19.1211 -19.0955 -19.0153 -18.9862 -18.9211 -18.8833
     6.5842   8.1873   8.5817   8.6518   9.8392  10.1339  10.3346

          k = 0.2222 0.3849 0.2091 (  4087 PWs)   bands (ev):

   -40.0826 -40.0682 -19.1438 -19.1165 -18.9905 -18.9709 -18.9230 -18.8773
     6.8805   7.8041   8.7974   8.8298   9.6991   9.8091  10.5481

          k = 0.2222 0.3849-0.3137 (  4072 PWs)   bands (ev):

   -40.0754 -40.0754 -19.1395 -19.1395 -18.9767 -18.9767 -18.8946 -18.8946
     7.3191   7.3191   8.9678   8.9678   9.5799   9.5799  10.9476

          k = 0.2222 0.5132 0.0000 (  4091 PWs)   bands (ev):

   -40.0767 -40.0622 -19.1276 -19.0723 -19.0240 -19.0203 -18.9456 -18.9327
     7.5037   8.2613   8.2905   8.4241   9.7878   9.9600  10.6168

          k = 0.2222 0.5132 0.1046 (  4085 PWs)   bands (ev):

   -40.0757 -40.0632 -19.1376 -19.0987 -19.0399 -18.9822 -18.9536 -18.9100
     7.5531   8.1811   8.3853   8.5632   9.7262   9.8094  10.6348

          k = 0.2222 0.5132 0.2091 (  4103 PWs)   bands (ev):

   -40.0731 -40.0658 -19.1562 -19.1334 -19.0363 -18.9857 -18.9214 -18.8878
     7.6898   8.0532   8.6285   8.8428   9.4499   9.5443  10.7534

          k = 0.2222 0.5132-0.3137 (  4090 PWs)   bands (ev):

   -40.0694 -40.0694 -19.1567 -19.1567 -19.0127 -19.0127 -18.8907 -18.8907
     7.8766   7.8766   8.9585   8.9585   9.2684   9.2684  11.0563

          k = 0.3333 0.5774 0.0000 (  4077 PWs)   bands (ev):

   -40.0674 -40.0674 -19.1142 -19.0528 -19.0528 -18.9857 -18.9761 -18.9761
     8.1579   8.1579   8.2620   8.3477   9.7599   9.7599  10.7723

          k = 0.3333 0.5774 0.1046 (  4092 PWs)   bands (ev):

   -40.0674 -40.0674 -19.1057 -19.0856 -19.0856 -18.9944 -18.9429 -18.9429
     8.2385   8.2385   8.2949   8.3793   9.6260   9.6260  10.7724

          k = 0.3333 0.5774 0.2091 (  4083 PWs)   bands (ev):

   -40.0674 -40.0674 -19.1249 -19.1249 -19.0824 -19.0182 -18.9027 -18.9027
     8.3731   8.4353   8.4564   8.4564   9.3147   9.3147  10.8342

          k = 0.3333 0.5774-0.3137 (  4128 PWs)   bands (ev):

   -40.0674 -40.0674 -19.1399 -19.1399 -19.0504 -19.0504 -18.8873 -18.8873
     8.4390   8.4390   8.6527   8.6527   9.0768   9.0768  11.0786

     the Fermi energy is     8.8129 ev

!    total energy              =    -306.87324867 Ry
     total all-electron energy =     -3050.014019 Ry
     estimated scf accuracy    <          4.8E-09 Ry
     smearing contrib. (-TS)   =      -0.00097861 Ry
     internal energy E=F+TS    =    -306.87227006 Ry

     The total energy is F=E-TS. E is the sum of the following terms:
     one-electron contribution =     -74.40836120 Ry
     hartree contribution      =      42.28636660 Ry
     xc contribution           =     -34.52744550 Ry
     ewald contribution        =    -126.46581261 Ry
     one-center paw contrib.   =    -113.75701734 Ry

     convergence has been achieved in  15 iterations

     Writing all to output data dir sc_smearing.out/scandium.save/

     init_run     :      0.47s CPU      0.49s WALL (       1 calls)
     electrons    :     16.49s CPU     17.43s WALL (       1 calls)

     Called by init_run:
     wfcinit      :      0.29s CPU      0.30s WALL (       1 calls)
     potinit      :      0.05s CPU      0.05s WALL (       1 calls)
     hinit0       :      0.11s CPU      0.11s WALL (       1 calls)

     Called by electrons:
     c_bands      :     14.30s CPU     15.17s WALL (      16 calls)
     sum_band     :      1.56s CPU      1.61s WALL (      16 calls)
     v_of_rho     :      0.01s CPU      0.01s WALL (      16 calls)
     newd         :      0.15s CPU      0.15s WALL (      16 calls)
     PAW_pot      :      0.48s CPU      0.48s WALL (      16 calls)
     mix_rho      :      0.01s CPU      0.01s WALL (      16 calls)

     Called by c_bands:
     init_us_2    :      0.19s CPU      0.20s WALL (    1584 calls)
     init_us_2:cp :      0.18s CPU      0.20s WALL (    1584 calls)
     cegterg      :     13.88s CPU     14.31s WALL (     770 calls)

     Called by *egterg:
     cdiaghg      :      1.55s CPU      1.59s WALL (    5394 calls)
     h_psi        :      9.34s CPU      9.69s WALL (    5492 calls)
     s_psi        :      0.62s CPU      0.64s WALL (    5492 calls)
     g_psi        :      0.06s CPU      0.06s WALL (    4674 calls)

     Called by h_psi:
     h_psi:calbec :      0.78s CPU      0.81s WALL (    5492 calls)
     vloc_psi     :      7.89s CPU      8.19s WALL (    5492 calls)
     add_vuspsi   :      0.62s CPU      0.64s WALL (    5492 calls)

     General routines
     calbec       :      0.96s CPU      1.00s WALL (    6260 calls)
     fft          :      0.01s CPU      0.01s WALL (      65 calls)
     ffts         :      0.00s CPU      0.00s WALL (      16 calls)
     fftw         :      8.30s CPU      8.60s WALL (   99568 calls)

     Parallel routines

     PWSCF        :     17.25s CPU     18.47s WALL


   This run was terminated on:  14:51:28  26Jul2023            

=------------------------------------------------------------------------------=
   JOB DONE.
=------------------------------------------------------------------------------=
