
     Program PWSCF v.7.2 starts on 26Jul2023 at 14:31:57 

     This program is part of the open-source Quantum ESPRESSO suite
     for quantum simulation of materials; please cite
         "P. Giannozzi et al., J. Phys.:Condens. Matter 21 395502 (2009);
         "P. Giannozzi et al., J. Phys.:Condens. Matter 29 465901 (2017);
         "P. Giannozzi et al., J. Chem. Phys. 152 154105 (2020);
          URL http://www.quantum-espresso.org", 
     in publications or presentations arising from this work. More details at
     http://www.quantum-espresso.org/quote

     Parallel version (MPI), running on    20 processors

     MPI processes distributed on     1 nodes
     316740 MiB available memory on the printing compute node when the environment starts

     Waiting for input...
     Reading input from standard input

     Current dimensions of program PWSCF are:
     Max number of different atomic species (ntypx) = 10
     Max number of k-points (npk) = 120000
     Max angular momentum in pseudopotentials (lmaxx) =  4
     file Sc.pz-spn-kjpaw_psl.1.0.0.UPF: wavefunction(s)  3S 3P 3D renormalized

     K-points division:     npool     =       2
     R & G space division:  proc/nbgrp/npool/nimage =      10
     Subspace diagonalization in iterative solution of the eigenvalue problem:
     a serial algorithm will be used


     Parallelization info
     --------------------
     sticks:   dense  smooth     PW     G-vecs:    dense   smooth      PW
     Min          85      21      7                 3261      405      79
     Max          88      22      8                 3264      407      84
     Sum         859     211     73                32631     4055     809

     Using Slab Decomposition



     bravais-lattice index     =            4
     lattice parameter (alat)  =       6.2531  a.u.
     unit-cell volume          =     337.5249 (a.u.)^3
     number of atoms/cell      =            2
     number of atomic types    =            1
     number of electrons       =        22.00
     number of Kohn-Sham states=           15
     kinetic-energy cutoff     =      20.0000  Ry
     charge density cutoff     =     320.0000  Ry
     scf convergence threshold =      1.0E-08
     mixing beta               =       0.7000
     number of iterations used =            8  plain     mixing
     Exchange-correlation= SLA  PZ   NOGX NOGC
                           (   1   1   0   0   0   0   0)

     celldm(1)=   6.253104  celldm(2)=   0.000000  celldm(3)=   1.594000
     celldm(4)=   0.000000  celldm(5)=   0.000000  celldm(6)=   0.000000

     crystal axes: (cart. coord. in units of alat)
               a(1) = (   1.000000   0.000000   0.000000 )  
               a(2) = (  -0.500000   0.866025   0.000000 )  
               a(3) = (   0.000000   0.000000   1.594000 )  

     reciprocal axes: (cart. coord. in units 2 pi/alat)
               b(1) = (  1.000000  0.577350 -0.000000 )  
               b(2) = (  0.000000  1.154701  0.000000 )  
               b(3) = (  0.000000 -0.000000  0.627353 )  


     PseudoPot. # 1 for Sc read from file:
     ../../../Sc.pz-spn-kjpaw_psl.1.0.0.UPF
     MD5 check sum: 1f9095df0bb42a6568b4e9f256ff075f
     Pseudo is Projector augmented-wave + core cor, Zval = 11.0
     Generated using 'atomic' code by A. Dal Corso  v.7.1
     Shape of augmentation charge: PSQ
     Using radial grid of 1173 points,  6 beta functions with: 
                l(1) =   0
                l(2) =   0
                l(3) =   1
                l(4) =   1
                l(5) =   2
                l(6) =   2
     Q(r) pseudized with 0 coefficients 


     atomic species   valence    mass     pseudopotential
        Sc            11.00    44.59600     Sc( 1.00)

     24 Sym. Ops., with inversion, found (12 have fractional translation)



   Cartesian axes

     site n.     atom                  positions (alat units)
         1           Sc  tau(   1) = (   0.0000000   0.0000000   0.0000000  )
         2           Sc  tau(   2) = (   0.5000000   0.2886751   0.7970000  )

     number of k points=    95  Marzari-Vanderbilt smearing, width (Ry)=  0.0200
                       cart. coord. in units 2pi/alat
        k(    1) = (   0.0000000   0.0000000   0.0000000), wk =   0.0017361
        k(    2) = (   0.0000000   0.0000000   0.0784191), wk =   0.0034722
        k(    3) = (   0.0000000   0.0000000   0.1568381), wk =   0.0034722
        k(    4) = (   0.0000000   0.0000000   0.2352572), wk =   0.0034722
        k(    5) = (   0.0000000   0.0000000  -0.3136763), wk =   0.0017361
        k(    6) = (   0.0000000   0.0962250   0.0000000), wk =   0.0104167
        k(    7) = (   0.0000000   0.0962250   0.0784191), wk =   0.0208333
        k(    8) = (   0.0000000   0.0962250   0.1568381), wk =   0.0208333
        k(    9) = (   0.0000000   0.0962250   0.2352572), wk =   0.0208333
        k(   10) = (   0.0000000   0.0962250  -0.3136763), wk =   0.0104167
        k(   11) = (   0.0000000   0.1924501   0.0000000), wk =   0.0104167
        k(   12) = (   0.0000000   0.1924501   0.0784191), wk =   0.0208333
        k(   13) = (   0.0000000   0.1924501   0.1568381), wk =   0.0208333
        k(   14) = (   0.0000000   0.1924501   0.2352572), wk =   0.0208333
        k(   15) = (   0.0000000   0.1924501  -0.3136763), wk =   0.0104167
        k(   16) = (   0.0000000   0.2886751   0.0000000), wk =   0.0104167
        k(   17) = (   0.0000000   0.2886751   0.0784191), wk =   0.0208333
        k(   18) = (   0.0000000   0.2886751   0.1568381), wk =   0.0208333
        k(   19) = (   0.0000000   0.2886751   0.2352572), wk =   0.0208333
        k(   20) = (   0.0000000   0.2886751  -0.3136763), wk =   0.0104167
        k(   21) = (   0.0000000   0.3849002   0.0000000), wk =   0.0104167
        k(   22) = (   0.0000000   0.3849002   0.0784191), wk =   0.0208333
        k(   23) = (   0.0000000   0.3849002   0.1568381), wk =   0.0208333
        k(   24) = (   0.0000000   0.3849002   0.2352572), wk =   0.0208333
        k(   25) = (   0.0000000   0.3849002  -0.3136763), wk =   0.0104167
        k(   26) = (   0.0000000   0.4811252   0.0000000), wk =   0.0104167
        k(   27) = (   0.0000000   0.4811252   0.0784191), wk =   0.0208333
        k(   28) = (   0.0000000   0.4811252   0.1568381), wk =   0.0208333
        k(   29) = (   0.0000000   0.4811252   0.2352572), wk =   0.0208333
        k(   30) = (   0.0000000   0.4811252  -0.3136763), wk =   0.0104167
        k(   31) = (   0.0000000  -0.5773503   0.0000000), wk =   0.0052083
        k(   32) = (   0.0000000  -0.5773503   0.0784191), wk =   0.0104167
        k(   33) = (   0.0000000  -0.5773503   0.1568381), wk =   0.0104167
        k(   34) = (   0.0000000  -0.5773503   0.2352572), wk =   0.0104167
        k(   35) = (   0.0000000  -0.5773503  -0.3136763), wk =   0.0052083
        k(   36) = (   0.0833333   0.1443376   0.0000000), wk =   0.0104167
        k(   37) = (   0.0833333   0.1443376   0.0784191), wk =   0.0208333
        k(   38) = (   0.0833333   0.1443376   0.1568381), wk =   0.0208333
        k(   39) = (   0.0833333   0.1443376   0.2352572), wk =   0.0208333
        k(   40) = (   0.0833333   0.1443376  -0.3136763), wk =   0.0104167
        k(   41) = (   0.0833333   0.2405626   0.0000000), wk =   0.0208333
        k(   42) = (   0.0833333   0.2405626   0.0784191), wk =   0.0416667
        k(   43) = (   0.0833333   0.2405626   0.1568381), wk =   0.0416667
        k(   44) = (   0.0833333   0.2405626   0.2352572), wk =   0.0416667
        k(   45) = (   0.0833333   0.2405626  -0.3136763), wk =   0.0208333
        k(   46) = (   0.0833333   0.3367877   0.0000000), wk =   0.0208333
        k(   47) = (   0.0833333   0.3367877   0.0784191), wk =   0.0416667
        k(   48) = (   0.0833333   0.3367877   0.1568381), wk =   0.0416667
        k(   49) = (   0.0833333   0.3367877   0.2352572), wk =   0.0416667
        k(   50) = (   0.0833333   0.3367877  -0.3136763), wk =   0.0208333
        k(   51) = (   0.0833333   0.4330127   0.0000000), wk =   0.0208333
        k(   52) = (   0.0833333   0.4330127   0.0784191), wk =   0.0416667
        k(   53) = (   0.0833333   0.4330127   0.1568381), wk =   0.0416667
        k(   54) = (   0.0833333   0.4330127   0.2352572), wk =   0.0416667
        k(   55) = (   0.0833333   0.4330127  -0.3136763), wk =   0.0208333
        k(   56) = (   0.0833333   0.5292377   0.0000000), wk =   0.0208333
        k(   57) = (   0.0833333   0.5292377   0.0784191), wk =   0.0416667
        k(   58) = (   0.0833333   0.5292377   0.1568381), wk =   0.0416667
        k(   59) = (   0.0833333   0.5292377   0.2352572), wk =   0.0416667
        k(   60) = (   0.0833333   0.5292377  -0.3136763), wk =   0.0208333
        k(   61) = (   0.1666667   0.2886751   0.0000000), wk =   0.0104167
        k(   62) = (   0.1666667   0.2886751   0.0784191), wk =   0.0208333
        k(   63) = (   0.1666667   0.2886751   0.1568381), wk =   0.0208333
        k(   64) = (   0.1666667   0.2886751   0.2352572), wk =   0.0208333
        k(   65) = (   0.1666667   0.2886751  -0.3136763), wk =   0.0104167
        k(   66) = (   0.1666667   0.3849002   0.0000000), wk =   0.0208333
        k(   67) = (   0.1666667   0.3849002   0.0784191), wk =   0.0416667
        k(   68) = (   0.1666667   0.3849002   0.1568381), wk =   0.0416667
        k(   69) = (   0.1666667   0.3849002   0.2352572), wk =   0.0416667
        k(   70) = (   0.1666667   0.3849002  -0.3136763), wk =   0.0208333
        k(   71) = (   0.1666667   0.4811252   0.0000000), wk =   0.0208333
        k(   72) = (   0.1666667   0.4811252   0.0784191), wk =   0.0416667
        k(   73) = (   0.1666667   0.4811252   0.1568381), wk =   0.0416667
        k(   74) = (   0.1666667   0.4811252   0.2352572), wk =   0.0416667
        k(   75) = (   0.1666667   0.4811252  -0.3136763), wk =   0.0208333
        k(   76) = (   0.1666667   0.5773503   0.0000000), wk =   0.0104167
        k(   77) = (   0.1666667   0.5773503   0.0784191), wk =   0.0208333
        k(   78) = (   0.1666667   0.5773503   0.1568381), wk =   0.0208333
        k(   79) = (   0.1666667   0.5773503   0.2352572), wk =   0.0208333
        k(   80) = (   0.1666667   0.5773503  -0.3136763), wk =   0.0104167
        k(   81) = (   0.2500000   0.4330127   0.0000000), wk =   0.0104167
        k(   82) = (   0.2500000   0.4330127   0.0784191), wk =   0.0208333
        k(   83) = (   0.2500000   0.4330127   0.1568381), wk =   0.0208333
        k(   84) = (   0.2500000   0.4330127   0.2352572), wk =   0.0208333
        k(   85) = (   0.2500000   0.4330127  -0.3136763), wk =   0.0104167
        k(   86) = (   0.2500000   0.5292377   0.0000000), wk =   0.0208333
        k(   87) = (   0.2500000   0.5292377   0.0784191), wk =   0.0416667
        k(   88) = (   0.2500000   0.5292377   0.1568381), wk =   0.0416667
        k(   89) = (   0.2500000   0.5292377   0.2352572), wk =   0.0416667
        k(   90) = (   0.2500000   0.5292377  -0.3136763), wk =   0.0208333
        k(   91) = (   0.3333333   0.5773503   0.0000000), wk =   0.0034722
        k(   92) = (   0.3333333   0.5773503   0.0784191), wk =   0.0069444
        k(   93) = (   0.3333333   0.5773503   0.1568381), wk =   0.0069444
        k(   94) = (   0.3333333   0.5773503   0.2352572), wk =   0.0069444
        k(   95) = (   0.3333333   0.5773503  -0.3136763), wk =   0.0034722

     Dense  grid:    32631 G-vectors     FFT dimensions: (  36,  36,  60)

     Smooth grid:     4055 G-vectors     FFT dimensions: (  18,  18,  30)

     Estimated max dynamical RAM per process >       8.61 MB

     Estimated total dynamical RAM >     164.20 MB

     Check: negative core charge=   -0.000015

     Initial potential from superposition of free atoms

     starting charge      21.9956, renormalised to      22.0000
     Starting wfcs are   20 randomized atomic wfcs
     Checking if some PAW data can be deallocated... 

     total cpu time spent up to now is        0.6 secs

     Self-consistent Calculation

     iteration #  1     ecut=    20.00 Ry     beta= 0.70
     Davidson diagonalization with overlap
     ethr =  1.00E-02,  avg # of iterations =  3.8

     total cpu time spent up to now is        1.0 secs

     total energy              =    -304.94363180 Ry
     estimated scf accuracy    <       0.27733496 Ry

     iteration #  2     ecut=    20.00 Ry     beta= 0.70
     Davidson diagonalization with overlap
     ethr =  1.26E-03,  avg # of iterations =  2.7

     total cpu time spent up to now is        1.4 secs

     total energy              =    -305.01936777 Ry
     estimated scf accuracy    <       0.01929616 Ry

     iteration #  3     ecut=    20.00 Ry     beta= 0.70
     Davidson diagonalization with overlap
     ethr =  8.77E-05,  avg # of iterations =  2.6

     total cpu time spent up to now is        1.8 secs

     total energy              =    -305.02253656 Ry
     estimated scf accuracy    <       0.00064871 Ry

     iteration #  4     ecut=    20.00 Ry     beta= 0.70
     Davidson diagonalization with overlap
     ethr =  2.95E-06,  avg # of iterations =  5.1

     total cpu time spent up to now is        2.2 secs

     total energy              =    -305.02265555 Ry
     estimated scf accuracy    <       0.00004724 Ry

     iteration #  5     ecut=    20.00 Ry     beta= 0.70
     Davidson diagonalization with overlap
     ethr =  2.15E-07,  avg # of iterations =  3.7

     total cpu time spent up to now is        2.7 secs

     total energy              =    -305.02267131 Ry
     estimated scf accuracy    <       0.00000751 Ry

     iteration #  6     ecut=    20.00 Ry     beta= 0.70
     Davidson diagonalization with overlap
     ethr =  3.41E-08,  avg # of iterations =  2.9

     total cpu time spent up to now is        3.1 secs

     total energy              =    -305.02267337 Ry
     estimated scf accuracy    <       0.00000004 Ry

     iteration #  7     ecut=    20.00 Ry     beta= 0.70
     Davidson diagonalization with overlap
     ethr =  1.83E-10,  avg # of iterations =  5.3

     total cpu time spent up to now is        3.5 secs

     End of self-consistent calculation

          k = 0.0000 0.0000 0.0000 (   537 PWs)   bands (ev):

   -42.2902 -42.2438 -19.6714 -19.5380 -19.5380 -19.3493 -19.3493 -19.3428
     3.6412   7.3660   9.3164  11.0508  11.0508  11.4791  11.6797

          k = 0.0000 0.0000 0.0784 (   524 PWs)   bands (ev):

   -42.2850 -42.2260 -19.3324 -19.3324 -19.3219 -19.3219 -19.2884 -19.2715
     3.7430   7.2132   9.4667  11.1343  11.1344  11.4495  11.6205

          k = 0.0000 0.0000 0.1568 (   518 PWs)   bands (ev):

   -42.2731 -42.2310 -19.3039 -19.2809 -19.2809 -19.2551 -19.2048 -19.2048
     4.0466   6.6127   9.6734  10.9884  11.0776  11.0777  11.5215

          k = 0.0000 0.0000 0.2353 (   512 PWs)   bands (ev):

   -42.2561 -42.2394 -19.2675 -19.2675 -19.1926 -19.1727 -19.1727 -19.0697
     4.5288   5.8798  10.0434  10.9446  11.0892  11.0897  11.3667

          k = 0.0000 0.0000-0.3137 (   518 PWs)   bands (ev):

   -42.2522 -42.2522 -19.3323 -19.3323 -19.3323 -19.3323 -19.1187 -19.1187
     5.1571   5.1571  10.4501  10.4503  11.1544  11.1545  11.1546

          k = 0.0000 0.0962 0.0000 (   531 PWs)   bands (ev):

   -42.2855 -42.2330 -19.5488 -19.4843 -19.3690 -19.3433 -19.3187 -19.3062
     3.7927   7.5252   9.2771  10.8328  11.2994  11.5556  11.6962

          k = 0.0000 0.0962 0.0784 (   520 PWs)   bands (ev):

   -42.2776 -42.2224 -19.3918 -19.3192 -19.2942 -19.2908 -19.2365 -19.0789
     3.8956   7.3489   9.3998  10.9602  11.2614  11.4674  11.5536

          k = 0.0000 0.0962 0.1568 (   524 PWs)   bands (ev):

   -42.2782 -42.2309 -19.4543 -19.4309 -19.3547 -19.2904 -19.2575 -19.1719
     4.1924   6.7401   9.6324  10.8767  10.9388  11.1683  11.4058

          k = 0.0000 0.0962 0.2353 (   512 PWs)   bands (ev):

   -42.2555 -42.2359 -19.2487 -19.2466 -19.2352 -19.1807 -19.1552 -19.1154
     4.6739   6.0121  10.0056  10.7256  11.0064  11.2512  11.2947

          k = 0.0000 0.0962-0.3137 (   512 PWs)   bands (ev):

   -42.2464 -42.2464 -19.2366 -19.2366 -19.2264 -19.2264 -19.1469 -19.1469
     5.2935   5.2935  10.4225  10.4226  11.1084  11.1123  11.2970

          k = 0.0000 0.1925 0.0000 (   520 PWs)   bands (ev):

   -42.2726 -42.2171 -19.4074 -19.3770 -19.3200 -19.3033 -19.1846 -19.1214
     4.2413   7.9645   9.1608  10.4128  11.2430  11.6640  11.7211

          k = 0.0000 0.1925 0.0784 (   519 PWs)   bands (ev):

   -42.2714 -42.2167 -19.3597 -19.3500 -19.3249 -19.2733 -19.1813 -19.1488
     4.3380   7.7069   9.2869  10.4698  11.2833  11.4154  11.5580

          k = 0.0000 0.1925 0.1568 (   517 PWs)   bands (ev):

   -42.2618 -42.2245 -19.4082 -19.3099 -19.2594 -19.2137 -19.1916 -19.1687
     4.6263   7.1144   9.5229  10.5828  10.8610  11.2653  11.5018

          k = 0.0000 0.1925 0.2353 (   516 PWs)   bands (ev):

   -42.2539 -42.2326 -19.4179 -19.2497 -19.2487 -19.2233 -19.2133 -19.1785
     5.0856   6.3843   9.8781  10.4565  10.7875  11.0320  11.5022

          k = 0.0000 0.1925-0.3137 (   510 PWs)   bands (ev):

   -42.2386 -42.2386 -19.2309 -19.2309 -19.2167 -19.2167 -19.1168 -19.1168
     5.6898   5.6898  10.2971  10.2971  10.9803  10.9806  11.5832

          k = 0.0000 0.2887 0.0000 (   516 PWs)   bands (ev):

   -42.2573 -42.2127 -19.4038 -19.3361 -19.3040 -19.2862 -19.1624 -19.1122
     4.9398   8.4343   9.0637   9.8575  11.0694  11.3831  11.4171

          k = 0.0000 0.2887 0.0784 (   511 PWs)   bands (ev):

   -42.2508 -42.2106 -19.3379 -19.3250 -19.2767 -19.1771 -19.0898 -19.0354
     5.0354   8.1911   9.1513   9.9510  11.0977  11.4142  11.4635

          k = 0.0000 0.2887 0.1568 (   513 PWs)   bands (ev):

   -42.2500 -42.2157 -19.3869 -19.3327 -19.2435 -19.1829 -19.1446 -19.1213
     5.2911   7.5936   9.4089  10.0699  10.7440  11.1853  11.6842

          k = 0.0000 0.2887 0.2353 (   514 PWs)   bands (ev):

   -42.2442 -42.2248 -19.4718 -19.3142 -19.2100 -19.2076 -19.1814 -19.1498
     5.7122   6.9194   9.6930  10.0316  10.5705  11.0148  11.8518

          k = 0.0000 0.2887-0.3137 (   512 PWs)   bands (ev):

   -42.2328 -42.2328 -19.3368 -19.3368 -19.1860 -19.1860 -19.1739 -19.1739
     6.2676   6.2676   9.9077   9.9077  10.7483  10.7484  12.0080

          k = 0.0000 0.3849 0.0000 (   512 PWs)   bands (ev):

   -42.2416 -42.2091 -19.3248 -19.3077 -19.2719 -19.2103 -19.2020 -19.1932
     5.8165   8.7436   8.8895   9.4650  10.9685  11.0483  11.1158

          k = 0.0000 0.3849 0.0784 (   505 PWs)   bands (ev):

   -42.2340 -42.2061 -19.3072 -19.2535 -19.2137 -19.1211 -19.0960 -19.0622
     5.8991   8.5147   9.0446   9.5176  10.9481  11.1749  11.3065

          k = 0.0000 0.3849 0.1568 (   506 PWs)   bands (ev):

   -42.2297 -42.2122 -19.3376 -19.2805 -19.1847 -19.1601 -19.1223 -19.0368
     6.1236   8.0244   9.2184   9.6663  10.7389  11.0802  11.6145

          k = 0.0000 0.3849 0.2353 (   514 PWs)   bands (ev):

   -42.2324 -42.2230 -19.4304 -19.3618 -19.3374 -19.2880 -19.1427 -19.1364
     6.4619   7.4558   9.3481   9.6964  10.4514  10.8465  11.8672

          k = 0.0000 0.3849-0.3137 (   524 PWs)   bands (ev):

   -42.2361 -42.2361 -19.4952 -19.4952 -19.3619 -19.3619 -19.3417 -19.3417
     6.9125   6.9125   9.4726   9.4726  10.5061  10.5062  12.1534

          k = 0.0000 0.4811 0.0000 (   500 PWs)   bands (ev):

   -42.2284 -42.1951 -19.3756 -19.2545 -19.2165 -19.0376 -18.9929 -18.9804
     6.7950   8.5332   8.8802   9.1267  10.9552  11.1445  11.2010

          k = 0.0000 0.4811 0.0784 (   506 PWs)   bands (ev):

   -42.2348 -42.1989 -19.3484 -19.3210 -19.2555 -19.1528 -19.1370 -19.0745
     6.8164   8.4460   8.8629   9.1775  10.7357  11.0985  11.1565

          k = 0.0000 0.4811 0.1568 (   508 PWs)   bands (ev):

   -42.2271 -42.2093 -19.3419 -19.2880 -19.2497 -19.2471 -19.1638 -19.1178
     6.9653   8.1296   9.0045   9.2859  10.6125  10.9439  11.4957

          k = 0.0000 0.4811 0.2353 (   508 PWs)   bands (ev):

   -42.2231 -42.2137 -19.3598 -19.2999 -19.2473 -19.2460 -19.1870 -19.0913
     7.1962   7.8283   9.2480   9.4010  10.4234  10.7107  11.8512

          k = 0.0000 0.4811-0.3137 (   516 PWs)   bands (ev):

   -42.2253 -42.2253 -19.3994 -19.3994 -19.3263 -19.3263 -19.2796 -19.2796
     7.4611   7.4611   9.3538   9.3538  10.4348  10.4348  12.1624

          k = 0.0000-0.5774 0.0000 (   496 PWs)   bands (ev):

   -42.2222 -42.1922 -19.2786 -19.1738 -19.1629 -19.1151 -19.0687 -18.8590
     7.4573   8.2072   8.7681   9.0064  10.8536  11.1237  11.3088

          k = 0.0000-0.5774 0.0784 (   506 PWs)   bands (ev):

   -42.2278 -42.2029 -19.3786 -19.3009 -19.2819 -19.1481 -19.1298 -19.1258
     7.4240   8.1091   8.7862   9.0218  10.7756  11.0710  11.1575

          k = 0.0000-0.5774 0.1568 (   504 PWs)   bands (ev):

   -42.2273 -42.2000 -19.3307 -19.3260 -19.2780 -19.1169 -19.0968 -19.0654
     7.4844   8.0415   9.0408   9.1227  10.5730  10.8711  11.3910

          k = 0.0000-0.5774 0.2353 (   508 PWs)   bands (ev):

   -42.2214 -42.2127 -19.4359 -19.3690 -19.2648 -19.1769 -19.1691 -19.1041
     7.5503   7.8800   9.1835   9.2347  10.4166  10.5973  11.8025

          k = 0.0000-0.5774-0.3137 (   504 PWs)   bands (ev):

   -42.2142 -42.2142 -19.3473 -19.3473 -19.1599 -19.1599 -19.1224 -19.1224
     7.7276   7.7276   9.3130   9.3130  10.4486  10.4486  12.2858

          k = 0.0833 0.1443 0.0000 (   515 PWs)   bands (ev):

   -42.2700 -42.2142 -19.3763 -19.3486 -19.3120 -19.1441 -19.1129 -19.0249
     4.0956   7.8557   9.1979  10.7668  11.4464  11.6658  11.7490

          k = 0.0833 0.1443 0.0784 (   520 PWs)   bands (ev):

   -42.2745 -42.2186 -19.3752 -19.3611 -19.2828 -19.2800 -19.2560 -19.1242
     4.1918   7.6018   9.3209  10.6656  11.3295  11.3635  11.5102

          k = 0.0833 0.1443 0.1568 (   519 PWs)   bands (ev):

   -42.2673 -42.2258 -19.4283 -19.3664 -19.3115 -19.2248 -19.2205 -19.1133
     4.4835   6.9986   9.5810  10.6523  10.8894  11.2780  11.4019

          k = 0.0833 0.1443 0.2353 (   517 PWs)   bands (ev):

   -42.2583 -42.2335 -19.3554 -19.3136 -19.2741 -19.2301 -19.2041 -19.1980
     4.9480   6.2622   9.9028  10.5111  10.8050  11.1344  11.4030

          k = 0.0833 0.1443-0.3137 (   510 PWs)   bands (ev):

   -42.2406 -42.2406 -19.2633 -19.2633 -19.1901 -19.1901 -19.1052 -19.1052
     5.5611   5.5611  10.3145  10.3146  10.9765  10.9768  11.5149

          k = 0.0833 0.2406 0.0000 (   515 PWs)   bands (ev):

   -42.2605 -42.2126 -19.3655 -19.3168 -19.3096 -19.2138 -19.1868 -19.0731
     4.6711   8.3099   9.1024  10.1350  11.0293  11.4264  11.6701

          k = 0.0833 0.2406 0.0784 (   515 PWs)   bands (ev):

   -42.2586 -42.2142 -19.3719 -19.3128 -19.2833 -19.2220 -19.1939 -19.0838
     4.7648   8.0440   9.1907  10.1669  11.0556  11.3513  11.5797

          k = 0.0833 0.2406 0.1568 (   522 PWs)   bands (ev):

   -42.2606 -42.2247 -19.5295 -19.3593 -19.3300 -19.2888 -19.2652 -19.2091
     5.0316   7.4205   9.4243  10.2030  10.8187  11.0372  11.5353

          k = 0.0833 0.2406 0.2353 (   516 PWs)   bands (ev):

   -42.2486 -42.2281 -19.3947 -19.3322 -19.2797 -19.2423 -19.2057 -19.1499
     5.4717   6.7293   9.7556  10.2228  10.5890  10.9707  11.6888

          k = 0.0833 0.2406-0.3137 (   514 PWs)   bands (ev):

   -42.2367 -42.2367 -19.3010 -19.3010 -19.2382 -19.2382 -19.1931 -19.1931
     6.0529   6.0529  10.0440  10.0441  10.7822  10.7823  11.8159

          k = 0.0833 0.3368 0.0000 (   510 PWs)   bands (ev):

   -42.2464 -42.2067 -19.3841 -19.2895 -19.2312 -19.2100 -19.1416 -19.0807
     5.4685   8.7470   8.9515   9.6768  10.9012  11.1374  11.3249

          k = 0.0833 0.3368 0.0784 (   508 PWs)   bands (ev):

   -42.2413 -42.2085 -19.3460 -19.2637 -19.2345 -19.1752 -19.0985 -19.0783
     5.5508   8.4755   9.1246   9.7066  10.9275  11.1639  11.4120

          k = 0.0833 0.3368 0.1568 (   509 PWs)   bands (ev):

   -42.2376 -42.2142 -19.3441 -19.2846 -19.2073 -19.1848 -19.1469 -19.1133
     5.7914   7.9049   9.3430   9.8098  10.7115  11.0804  11.5301

          k = 0.0833 0.3368 0.2353 (   513 PWs)   bands (ev):

   -42.2387 -42.2195 -19.3955 -19.3183 -19.2523 -19.2300 -19.1948 -19.1622
     6.1699   7.2981   9.5584   9.8339  10.4828  10.8708  11.7995

          k = 0.0833 0.3368-0.3137 (   520 PWs)   bands (ev):

   -42.2349 -42.2349 -19.4165 -19.4165 -19.3392 -19.3392 -19.2680 -19.2680
     6.6739   6.6739   9.6456   9.6456  10.5533  10.5533  12.0464

          k = 0.0833 0.4330 0.0000 (   504 PWs)   bands (ev):

   -42.2309 -42.2026 -19.3259 -19.2951 -19.2316 -19.1675 -19.0680 -19.0265
     6.4011   8.7943   8.9030   9.2372  10.9507  11.0779  11.0868

          k = 0.0833 0.4330 0.0784 (   507 PWs)   bands (ev):

   -42.2321 -42.2064 -19.3563 -19.2995 -19.2496 -19.1990 -19.1362 -19.0836
     6.4636   8.5682   8.9894   9.2922  10.7632  11.0919  11.2219

          k = 0.0833 0.4330 0.1568 (   506 PWs)   bands (ev):

   -42.2282 -42.2080 -19.3328 -19.2664 -19.2614 -19.1696 -19.1340 -19.0759
     6.6470   8.2453   9.1710   9.3969  10.5860  10.9944  11.4571

          k = 0.0833 0.4330 0.2353 (   512 PWs)   bands (ev):

   -42.2261 -42.2197 -19.4070 -19.3704 -19.3162 -19.2326 -19.1933 -19.1321
     6.9403   7.7490   9.2978   9.4978  10.3849  10.6758  11.7979

          k = 0.0833 0.4330-0.3137 (   512 PWs)   bands (ev):

   -42.2229 -42.2229 -19.3431 -19.3431 -19.2664 -19.2664 -19.2167 -19.2167
     7.3341   7.3341   9.5005   9.5005  10.4211  10.4211  12.1807

          k = 0.0833 0.5292 0.0000 (   504 PWs)   bands (ev):

   -42.2207 -42.2071 -19.3373 -19.2490 -19.1959 -19.1763 -19.1532 -19.1073
     7.3190   8.3752   8.7437   8.9740  10.8173  10.9798  11.4320

          k = 0.0833 0.5292 0.0784 (   500 PWs)   bands (ev):

   -42.2225 -42.1986 -19.2657 -19.2174 -19.1839 -19.1374 -19.1043 -19.0312
     7.3505   8.3555   8.8631   9.0827  10.7269  11.0336  11.3690

          k = 0.0833 0.5292 0.1568 (   503 PWs)   bands (ev):

   -42.2235 -42.2023 -19.3101 -19.2802 -19.2240 -19.1577 -19.1142 -19.0605
     7.4125   8.1916   9.0514   9.1908  10.5189  10.8484  11.4820

          k = 0.0833 0.5292 0.2353 (   505 PWs)   bands (ev):

   -42.2182 -42.2109 -19.3529 -19.2476 -19.2283 -19.2017 -19.1611 -19.0989
     7.5534   7.9910   9.2426   9.3131  10.3352  10.6067  11.8244

          k = 0.0833 0.5292-0.3137 (   508 PWs)   bands (ev):

   -42.2172 -42.2172 -19.3586 -19.3586 -19.2253 -19.2253 -19.1747 -19.1747
     7.7554   7.7554   9.3525   9.3525  10.3261  10.3261  12.2257

          k = 0.1667 0.2887 0.0000 (   507 PWs)   bands (ev):

   -42.2419 -42.2080 -19.3195 -19.2583 -19.2226 -19.1301 -19.1179 -19.0498
     5.3506   8.7414   9.0636   9.7136  10.9714  11.1450  11.5237

          k = 0.1667 0.2887 0.0784 (   508 PWs)   bands (ev):

   -42.2433 -42.2088 -19.3098 -19.2759 -19.1956 -19.1739 -19.1477 -19.0866
     5.4337   8.4711   9.1245   9.7461  10.9597  11.1305  11.4237

          k = 0.1667 0.2887 0.1568 (   516 PWs)   bands (ev):

   -42.2479 -42.2170 -19.4019 -19.3690 -19.3462 -19.2883 -19.1839 -19.1541
     5.6764   7.8667   9.3445   9.8449  10.7532  10.9743  11.3300

          k = 0.1667 0.2887 0.2353 (   512 PWs)   bands (ev):

   -42.2397 -42.2181 -19.3510 -19.3464 -19.2481 -19.2278 -19.1932 -19.0811
     6.0807   7.2437   9.6399   9.9769  10.4751  10.8376  11.6375

          k = 0.1667 0.2887-0.3137 (   516 PWs)   bands (ev):

   -42.2324 -42.2324 -19.3721 -19.3721 -19.2694 -19.2694 -19.2278 -19.2278
     6.6083   6.6083   9.8030   9.8030  10.6084  10.6085  12.0218

          k = 0.1667 0.3849 0.0000 (   504 PWs)   bands (ev):

   -42.2303 -42.2052 -19.3657 -19.2768 -19.2109 -19.1756 -19.0974 -18.9643
     6.2123   8.9214   8.9897   9.2840  10.9512  11.0077  11.2393

          k = 0.1667 0.3849 0.0784 (   505 PWs)   bands (ev):

   -42.2326 -42.2050 -19.3341 -19.2758 -19.1967 -19.1673 -19.1196 -19.0868
     6.2815   8.7484   9.1172   9.3422  10.8115  11.1009  11.1657

          k = 0.1667 0.3849 0.1568 (   507 PWs)   bands (ev):

   -42.2311 -42.2091 -19.3233 -19.3018 -19.2248 -19.2165 -19.1351 -19.1081
     6.4902   8.3193   9.2631   9.4871  10.5989  10.9460  11.2978

          k = 0.1667 0.3849 0.2353 (   516 PWs)   bands (ev):

   -42.2329 -42.2212 -19.4058 -19.3595 -19.3472 -19.2933 -19.2801 -19.2243
     6.8135   7.7716   9.3911   9.6133  10.3241  10.6453  11.5087

          k = 0.1667 0.3849-0.3137 (   512 PWs)   bands (ev):

   -42.2236 -42.2236 -19.3329 -19.3329 -19.3043 -19.3043 -19.1730 -19.1730
     7.2689   7.2689   9.6155   9.6155  10.4073  10.4073  12.0409

          k = 0.1667 0.4811 0.0000 (   508 PWs)   bands (ev):

   -42.2231 -42.2117 -19.3930 -19.3232 -19.3208 -19.2065 -19.1475 -19.1215
     7.1493   8.7343   8.8557   9.0007  10.7491  10.9521  11.3144

          k = 0.1667 0.4811 0.0784 (   505 PWs)   bands (ev):

   -42.2232 -42.2069 -19.3602 -19.2820 -19.2306 -19.2053 -19.1619 -19.0754
     7.2013   8.6616   8.9664   9.1232  10.6516  10.8637  11.3467

          k = 0.1667 0.4811 0.1568 (   506 PWs)   bands (ev):

   -42.2221 -42.2094 -19.3638 -19.2668 -19.2559 -19.2230 -19.1737 -19.0967
     7.3475   8.4443   9.1172   9.2372  10.3918  10.6920  11.4564

          k = 0.1667 0.4811 0.2353 (   505 PWs)   bands (ev):

   -42.2179 -42.2107 -19.3536 -19.2873 -19.2208 -19.1770 -19.1422 -19.1021
     7.5789   8.1958   9.3406   9.4159  10.1657  10.4772  11.6798

          k = 0.1667 0.4811-0.3137 (   504 PWs)   bands (ev):

   -42.2133 -42.2133 -19.3036 -19.3036 -19.1795 -19.1795 -19.1133 -19.1133
     7.8649   7.8649   9.5053   9.5053  10.2283  10.2283  12.1482

          k = 0.1667 0.5774 0.0000 (   506 PWs)   bands (ev):

   -42.2191 -42.2092 -19.3474 -19.3289 -19.2408 -19.2275 -19.1474 -19.1160
     7.8446   8.3968   8.8216   8.9224  10.6712  10.8110  11.5342

          k = 0.1667 0.5774 0.0784 (   506 PWs)   bands (ev):

   -42.2221 -42.2066 -19.3346 -19.2853 -19.2588 -19.2236 -19.1856 -19.1327
     7.8266   8.3705   8.9105   9.0006  10.5696  10.7498  11.4778

          k = 0.1667 0.5774 0.1568 (   505 PWs)   bands (ev):

   -42.2194 -42.2079 -19.3055 -19.2972 -19.2576 -19.1927 -19.1580 -19.1490
     7.8765   8.3403   9.0587   9.1401  10.3335  10.5587  11.6090

          k = 0.1667 0.5774 0.2353 (   501 PWs)   bands (ev):

   -42.2151 -42.2045 -19.3483 -19.3077 -19.1441 -19.1151 -19.0911 -19.0450
     7.9974   8.2829   9.3045   9.3717  10.0809  10.3820  11.8231

          k = 0.1667 0.5774-0.3137 (   504 PWs)   bands (ev):

   -42.2119 -42.2119 -19.3320 -19.3320 -19.2255 -19.2255 -19.0642 -19.0642
     8.1228   8.1228   9.4415   9.4415  10.0941  10.0941  12.2090

          k = 0.2500 0.4330 0.0000 (   500 PWs)   bands (ev):

   -42.2144 -42.2076 -19.3243 -19.2887 -19.2517 -19.0580 -19.0195 -19.0098
     7.1009   8.9836   8.9847   9.0914  10.7160  10.9551  11.4207

          k = 0.2500 0.4330 0.0784 (   501 PWs)   bands (ev):

   -42.2165 -42.2077 -19.3093 -19.3034 -19.2138 -19.1082 -19.0843 -19.0259
     7.1580   8.8417   9.0199   9.1283  10.7100  10.8976  11.3931

          k = 0.2500 0.4330 0.1568 (   512 PWs)   bands (ev):

   -42.2287 -42.2131 -19.4025 -19.3723 -19.3273 -19.2790 -19.2356 -19.1985
     7.3053   8.6122   9.1205   9.2346  10.4144  10.4540  11.3264

          k = 0.2500 0.4330 0.2353 (   511 PWs)   bands (ev):

   -42.2230 -42.2157 -19.3778 -19.3658 -19.3082 -19.2556 -19.2471 -19.1553
     7.5846   8.2716   9.3217   9.4070  10.1975  10.2083  11.5622

          k = 0.2500 0.4330-0.3137 (   508 PWs)   bands (ev):

   -42.2168 -42.2168 -19.3290 -19.3290 -19.2765 -19.2765 -19.1402 -19.1402
     7.9359   7.9359   9.4904   9.4904  10.0986  10.0986  11.9993

          k = 0.2500 0.5292 0.0000 (   505 PWs)   bands (ev):

   -42.2145 -42.2104 -19.3984 -19.3544 -19.2820 -19.1418 -19.1034 -19.0717
     7.9750   8.6131   8.8984   8.9480  10.6325  10.7338  11.7029

          k = 0.2500 0.5292 0.0784 (   503 PWs)   bands (ev):

   -42.2127 -42.2090 -19.3699 -19.3652 -19.2031 -19.1269 -19.0919 -19.0663
     8.0207   8.6381   8.9364   9.0136  10.5067  10.6656  11.6633

          k = 0.2500 0.5292 0.1568 (   505 PWs)   bands (ev):

   -42.2168 -42.2083 -19.4171 -19.3183 -19.2533 -19.1943 -19.1375 -19.0546
     8.1049   8.6876   8.9941   9.1841  10.1721  10.3786  11.6629

          k = 0.2500 0.5292 0.2353 (   508 PWs)   bands (ev):

   -42.2180 -42.2119 -19.3864 -19.3362 -19.3071 -19.2458 -19.1634 -19.1443
     8.2780   8.6264   9.1606   9.3933   9.8330  10.0069  11.7960

          k = 0.2500 0.5292-0.3137 (   508 PWs)   bands (ev):

   -42.2144 -42.2144 -19.3472 -19.3472 -19.2578 -19.2578 -19.1740 -19.1740
     8.4689   8.4689   9.4708   9.4708   9.7212   9.7212  12.1212

          k = 0.3333 0.5774 0.0000 (   498 PWs)   bands (ev):

   -42.2051 -42.2051 -19.3626 -19.1854 -19.1854 -19.0594 -19.0594 -18.9969
     8.5382   8.5382   8.6132   9.1769  10.7167  10.7167  11.7871

          k = 0.3333 0.5774 0.0784 (   513 PWs)   bands (ev):

   -42.2183 -42.2183 -19.4352 -19.4218 -19.4218 -19.3124 -19.1758 -19.1758
     8.5612   8.5612   8.5880   8.9634  10.4097  10.4097  11.7715

          k = 0.3333 0.5774 0.1568 (   516 PWs)   bands (ev):

   -42.2209 -42.2209 -19.4711 -19.4711 -19.4109 -19.3503 -19.2274 -19.2274
     8.6794   8.7050   8.7050   8.9339  10.0794  10.0794  11.8514

          k = 0.3333 0.5774 0.2353 (   504 PWs)   bands (ev):

   -42.2106 -42.2106 -19.2478 -19.2345 -19.2345 -19.2035 -19.2035 -19.1815
     8.9121   8.9523   8.9523   9.1293   9.8568   9.8568  11.9310

          k = 0.3333 0.5774-0.3137 (   510 PWs)   bands (ev):

   -42.2153 -42.2153 -19.3876 -19.3876 -19.2398 -19.2398 -19.2358 -19.2358
     9.0183   9.0183   9.0755   9.0755   9.6062   9.6062  12.2351

     the Fermi energy is     9.3578 ev

!    total energy              =    -305.02267343 Ry
     total all-electron energy =     -3048.163444 Ry
     estimated scf accuracy    <          6.2E-09 Ry
     smearing contrib. (-TS)   =      -0.00094918 Ry
     internal energy E=F+TS    =    -305.02172425 Ry

     The total energy is F=E-TS. E is the sum of the following terms:
     one-electron contribution =     -71.07673894 Ry
     hartree contribution      =      39.98349548 Ry
     xc contribution           =     -34.03132894 Ry
     ewald contribution        =    -126.46581261 Ry
     one-center paw contrib.   =    -113.43133924 Ry

     convergence has been achieved in   7 iterations

     Writing all to output data dir sc_rhocut.out/scandium.save/

     init_run     :      0.36s CPU      0.38s WALL (       1 calls)
     electrons    :      2.72s CPU      3.00s WALL (       1 calls)

     Called by init_run:
     wfcinit      :      0.12s CPU      0.13s WALL (       1 calls)
     potinit      :      0.06s CPU      0.06s WALL (       1 calls)
     hinit0       :      0.14s CPU      0.14s WALL (       1 calls)

     Called by electrons:
     c_bands      :      2.08s CPU      2.32s WALL (       7 calls)
     sum_band     :      0.33s CPU      0.35s WALL (       7 calls)
     v_of_rho     :      0.01s CPU      0.01s WALL (       8 calls)
     newd         :      0.08s CPU      0.08s WALL (       8 calls)
     PAW_pot      :      0.24s CPU      0.24s WALL (       8 calls)
     mix_rho      :      0.00s CPU      0.01s WALL (       7 calls)

     Called by c_bands:
     init_us_2    :      0.03s CPU      0.03s WALL (     720 calls)
     init_us_2:cp :      0.03s CPU      0.03s WALL (     720 calls)
     cegterg      :      1.90s CPU      2.02s WALL (     336 calls)

     Called by *egterg:
     cdiaghg      :      0.43s CPU      0.45s WALL (    1573 calls)
     h_psi        :      1.22s CPU      1.31s WALL (    1621 calls)
     s_psi        :      0.07s CPU      0.08s WALL (    1621 calls)
     g_psi        :      0.01s CPU      0.01s WALL (    1237 calls)

     Called by h_psi:
     h_psi:calbec :      0.10s CPU      0.11s WALL (    1621 calls)
     vloc_psi     :      1.03s CPU      1.11s WALL (    1621 calls)
     add_vuspsi   :      0.07s CPU      0.08s WALL (    1621 calls)

     General routines
     calbec       :      0.13s CPU      0.14s WALL (    1957 calls)
     fft          :      0.02s CPU      0.02s WALL (      46 calls)
     ffts         :      0.00s CPU      0.00s WALL (      15 calls)
     fftw         :      1.03s CPU      1.10s WALL (   34730 calls)
     interpolate  :      0.00s CPU      0.00s WALL (       8 calls)

     Parallel routines

     PWSCF        :      3.30s CPU      3.76s WALL


   This run was terminated on:  14:32: 1  26Jul2023            

=------------------------------------------------------------------------------=
   JOB DONE.
=------------------------------------------------------------------------------=
