
     Program PWSCF v.7.2 starts on 21Jul2023 at 14: 8:31 

     This program is part of the open-source Quantum ESPRESSO suite
     for quantum simulation of materials; please cite
         "P. Giannozzi et al., J. Phys.:Condens. Matter 21 395502 (2009);
         "P. Giannozzi et al., J. Phys.:Condens. Matter 29 465901 (2017);
         "P. Giannozzi et al., J. Chem. Phys. 152 154105 (2020);
          URL http://www.quantum-espresso.org", 
     in publications or presentations arising from this work. More details at
     http://www.quantum-espresso.org/quote

     Parallel version (MPI), running on    20 processors

     MPI processes distributed on     1 nodes
     316537 MiB available memory on the printing compute node when the environment starts

     Waiting for input...
     Reading input from standard input

     Current dimensions of program PWSCF are:
     Max number of different atomic species (ntypx) = 10
     Max number of k-points (npk) = 120000
     Max angular momentum in pseudopotentials (lmaxx) =  4

     File sc_vcrelax.out/scandium.update deleted, as requested

     File sc_vcrelax.out/scandium.bfgs deleted, as requested
     file Sc.pz-spn-kjpaw_psl.1.0.0.UPF: wavefunction(s)  3S 3P 3D renormalized

     R & G space division:  proc/nbgrp/npool/nimage =      20
     Subspace diagonalization in iterative solution of the eigenvalue problem:
     a serial algorithm will be used


     Parallelization info
     --------------------
     sticks:   dense  smooth     PW     G-vecs:    dense   smooth      PW
     Min          47      32      9                 1943     1056     169
     Max          48      33     10                 1952     1063     176
     Sum         955     649    199                38995    21181    3489

     Using Slab Decomposition



     bravais-lattice index     =            4
     lattice parameter (alat)  =       6.2531  a.u.
     unit-cell volume          =     337.5249 (a.u.)^3
     number of atoms/cell      =            2
     number of atomic types    =            1
     number of electrons       =        22.00
     number of Kohn-Sham states=           15
     kinetic-energy cutoff     =      60.0000  Ry
     charge density cutoff     =     360.0000  Ry
     scf convergence threshold =      1.0E-08
     mixing beta               =       0.7000
     number of iterations used =            8  plain     mixing
     energy convergence thresh.=      1.0E-04
     force convergence thresh. =      1.0E-03
     press convergence thresh. =      5.0E-01
     Exchange-correlation= SLA  PZ   NOGX NOGC
                           (   1   1   0   0   0   0   0)
     nstep                     =           50


     celldm(1)=   6.253104  celldm(2)=   0.000000  celldm(3)=   1.594000
     celldm(4)=   0.000000  celldm(5)=   0.000000  celldm(6)=   0.000000

     crystal axes: (cart. coord. in units of alat)
               a(1) = (   1.000000   0.000000   0.000000 )  
               a(2) = (  -0.500000   0.866025   0.000000 )  
               a(3) = (   0.000000   0.000000   1.594000 )  

     reciprocal axes: (cart. coord. in units 2 pi/alat)
               b(1) = (  1.000000  0.577350 -0.000000 )  
               b(2) = (  0.000000  1.154701  0.000000 )  
               b(3) = (  0.000000 -0.000000  0.627353 )  


     PseudoPot. # 1 for Sc read from file:
     ../../../Sc.pz-spn-kjpaw_psl.1.0.0.UPF
     MD5 check sum: 1f9095df0bb42a6568b4e9f256ff075f
     Pseudo is Projector augmented-wave + core cor, Zval = 11.0
     Generated using 'atomic' code by A. Dal Corso  v.7.1
     Shape of augmentation charge: PSQ
     Using radial grid of 1173 points,  6 beta functions with: 
                l(1) =   0
                l(2) =   0
                l(3) =   1
                l(4) =   1
                l(5) =   2
                l(6) =   2
     Q(r) pseudized with 0 coefficients 


     atomic species   valence    mass     pseudopotential
        Sc            11.00    44.59600     Sc( 1.00)

     24 Sym. Ops., with inversion, found (12 have fractional translation)



   Cartesian axes

     site n.     atom                  positions (alat units)
         1           Sc  tau(   1) = (   0.0000000   0.0000000   0.0000000  )
         2           Sc  tau(   2) = (   0.5000000   0.2886751   0.7970000  )

     number of k points=    95  Marzari-Vanderbilt smearing, width (Ry)=  0.0200
                       cart. coord. in units 2pi/alat
        k(    1) = (   0.0000000   0.0000000   0.0000000), wk =   0.0017361
        k(    2) = (   0.0000000   0.0000000   0.0784191), wk =   0.0034722
        k(    3) = (   0.0000000   0.0000000   0.1568381), wk =   0.0034722
        k(    4) = (   0.0000000   0.0000000   0.2352572), wk =   0.0034722
        k(    5) = (   0.0000000   0.0000000  -0.3136763), wk =   0.0017361
        k(    6) = (   0.0000000   0.0962250   0.0000000), wk =   0.0104167
        k(    7) = (   0.0000000   0.0962250   0.0784191), wk =   0.0208333
        k(    8) = (   0.0000000   0.0962250   0.1568381), wk =   0.0208333
        k(    9) = (   0.0000000   0.0962250   0.2352572), wk =   0.0208333
        k(   10) = (   0.0000000   0.0962250  -0.3136763), wk =   0.0104167
        k(   11) = (   0.0000000   0.1924501   0.0000000), wk =   0.0104167
        k(   12) = (   0.0000000   0.1924501   0.0784191), wk =   0.0208333
        k(   13) = (   0.0000000   0.1924501   0.1568381), wk =   0.0208333
        k(   14) = (   0.0000000   0.1924501   0.2352572), wk =   0.0208333
        k(   15) = (   0.0000000   0.1924501  -0.3136763), wk =   0.0104167
        k(   16) = (   0.0000000   0.2886751   0.0000000), wk =   0.0104167
        k(   17) = (   0.0000000   0.2886751   0.0784191), wk =   0.0208333
        k(   18) = (   0.0000000   0.2886751   0.1568381), wk =   0.0208333
        k(   19) = (   0.0000000   0.2886751   0.2352572), wk =   0.0208333
        k(   20) = (   0.0000000   0.2886751  -0.3136763), wk =   0.0104167
        k(   21) = (   0.0000000   0.3849002   0.0000000), wk =   0.0104167
        k(   22) = (   0.0000000   0.3849002   0.0784191), wk =   0.0208333
        k(   23) = (   0.0000000   0.3849002   0.1568381), wk =   0.0208333
        k(   24) = (   0.0000000   0.3849002   0.2352572), wk =   0.0208333
        k(   25) = (   0.0000000   0.3849002  -0.3136763), wk =   0.0104167
        k(   26) = (   0.0000000   0.4811252   0.0000000), wk =   0.0104167
        k(   27) = (   0.0000000   0.4811252   0.0784191), wk =   0.0208333
        k(   28) = (   0.0000000   0.4811252   0.1568381), wk =   0.0208333
        k(   29) = (   0.0000000   0.4811252   0.2352572), wk =   0.0208333
        k(   30) = (   0.0000000   0.4811252  -0.3136763), wk =   0.0104167
        k(   31) = (   0.0000000  -0.5773503   0.0000000), wk =   0.0052083
        k(   32) = (   0.0000000  -0.5773503   0.0784191), wk =   0.0104167
        k(   33) = (   0.0000000  -0.5773503   0.1568381), wk =   0.0104167
        k(   34) = (   0.0000000  -0.5773503   0.2352572), wk =   0.0104167
        k(   35) = (   0.0000000  -0.5773503  -0.3136763), wk =   0.0052083
        k(   36) = (   0.0833333   0.1443376   0.0000000), wk =   0.0104167
        k(   37) = (   0.0833333   0.1443376   0.0784191), wk =   0.0208333
        k(   38) = (   0.0833333   0.1443376   0.1568381), wk =   0.0208333
        k(   39) = (   0.0833333   0.1443376   0.2352572), wk =   0.0208333
        k(   40) = (   0.0833333   0.1443376  -0.3136763), wk =   0.0104167
        k(   41) = (   0.0833333   0.2405626   0.0000000), wk =   0.0208333
        k(   42) = (   0.0833333   0.2405626   0.0784191), wk =   0.0416667
        k(   43) = (   0.0833333   0.2405626   0.1568381), wk =   0.0416667
        k(   44) = (   0.0833333   0.2405626   0.2352572), wk =   0.0416667
        k(   45) = (   0.0833333   0.2405626  -0.3136763), wk =   0.0208333
        k(   46) = (   0.0833333   0.3367877   0.0000000), wk =   0.0208333
        k(   47) = (   0.0833333   0.3367877   0.0784191), wk =   0.0416667
        k(   48) = (   0.0833333   0.3367877   0.1568381), wk =   0.0416667
        k(   49) = (   0.0833333   0.3367877   0.2352572), wk =   0.0416667
        k(   50) = (   0.0833333   0.3367877  -0.3136763), wk =   0.0208333
        k(   51) = (   0.0833333   0.4330127   0.0000000), wk =   0.0208333
        k(   52) = (   0.0833333   0.4330127   0.0784191), wk =   0.0416667
        k(   53) = (   0.0833333   0.4330127   0.1568381), wk =   0.0416667
        k(   54) = (   0.0833333   0.4330127   0.2352572), wk =   0.0416667
        k(   55) = (   0.0833333   0.4330127  -0.3136763), wk =   0.0208333
        k(   56) = (   0.0833333   0.5292377   0.0000000), wk =   0.0208333
        k(   57) = (   0.0833333   0.5292377   0.0784191), wk =   0.0416667
        k(   58) = (   0.0833333   0.5292377   0.1568381), wk =   0.0416667
        k(   59) = (   0.0833333   0.5292377   0.2352572), wk =   0.0416667
        k(   60) = (   0.0833333   0.5292377  -0.3136763), wk =   0.0208333
        k(   61) = (   0.1666667   0.2886751   0.0000000), wk =   0.0104167
        k(   62) = (   0.1666667   0.2886751   0.0784191), wk =   0.0208333
        k(   63) = (   0.1666667   0.2886751   0.1568381), wk =   0.0208333
        k(   64) = (   0.1666667   0.2886751   0.2352572), wk =   0.0208333
        k(   65) = (   0.1666667   0.2886751  -0.3136763), wk =   0.0104167
        k(   66) = (   0.1666667   0.3849002   0.0000000), wk =   0.0208333
        k(   67) = (   0.1666667   0.3849002   0.0784191), wk =   0.0416667
        k(   68) = (   0.1666667   0.3849002   0.1568381), wk =   0.0416667
        k(   69) = (   0.1666667   0.3849002   0.2352572), wk =   0.0416667
        k(   70) = (   0.1666667   0.3849002  -0.3136763), wk =   0.0208333
        k(   71) = (   0.1666667   0.4811252   0.0000000), wk =   0.0208333
        k(   72) = (   0.1666667   0.4811252   0.0784191), wk =   0.0416667
        k(   73) = (   0.1666667   0.4811252   0.1568381), wk =   0.0416667
        k(   74) = (   0.1666667   0.4811252   0.2352572), wk =   0.0416667
        k(   75) = (   0.1666667   0.4811252  -0.3136763), wk =   0.0208333
        k(   76) = (   0.1666667   0.5773503   0.0000000), wk =   0.0104167
        k(   77) = (   0.1666667   0.5773503   0.0784191), wk =   0.0208333
        k(   78) = (   0.1666667   0.5773503   0.1568381), wk =   0.0208333
        k(   79) = (   0.1666667   0.5773503   0.2352572), wk =   0.0208333
        k(   80) = (   0.1666667   0.5773503  -0.3136763), wk =   0.0104167
        k(   81) = (   0.2500000   0.4330127   0.0000000), wk =   0.0104167
        k(   82) = (   0.2500000   0.4330127   0.0784191), wk =   0.0208333
        k(   83) = (   0.2500000   0.4330127   0.1568381), wk =   0.0208333
        k(   84) = (   0.2500000   0.4330127   0.2352572), wk =   0.0208333
        k(   85) = (   0.2500000   0.4330127  -0.3136763), wk =   0.0104167
        k(   86) = (   0.2500000   0.5292377   0.0000000), wk =   0.0208333
        k(   87) = (   0.2500000   0.5292377   0.0784191), wk =   0.0416667
        k(   88) = (   0.2500000   0.5292377   0.1568381), wk =   0.0416667
        k(   89) = (   0.2500000   0.5292377   0.2352572), wk =   0.0416667
        k(   90) = (   0.2500000   0.5292377  -0.3136763), wk =   0.0208333
        k(   91) = (   0.3333333   0.5773503   0.0000000), wk =   0.0034722
        k(   92) = (   0.3333333   0.5773503   0.0784191), wk =   0.0069444
        k(   93) = (   0.3333333   0.5773503   0.1568381), wk =   0.0069444
        k(   94) = (   0.3333333   0.5773503   0.2352572), wk =   0.0069444
        k(   95) = (   0.3333333   0.5773503  -0.3136763), wk =   0.0034722

     Dense  grid:    38995 G-vectors     FFT dimensions: (  45,  45,  64)

     Smooth grid:    21181 G-vectors     FFT dimensions: (  36,  36,  50)

     Estimated max dynamical RAM per process >      13.37 MB

     Estimated total dynamical RAM >     267.33 MB

     Check: negative core charge=   -0.000008

     Initial potential from superposition of free atoms

     starting charge      21.9956, renormalised to      22.0000
     Starting wfcs are   20 randomized atomic wfcs
     Checking if some PAW data can be deallocated... 

     total cpu time spent up to now is        1.2 secs

     Self-consistent Calculation

     iteration #  1     ecut=    60.00 Ry     beta= 0.70
     Davidson diagonalization with overlap
     ethr =  1.00E-02,  avg # of iterations =  2.5

     Threshold (ethr) on eigenvalues was too large:
     Diagonalizing with lowered threshold

     Davidson diagonalization with overlap
     c_bands:  1 eigenvalues not converged
     c_bands:  3 eigenvalues not converged
     c_bands:  2 eigenvalues not converged
     c_bands:  1 eigenvalues not converged
     c_bands:  1 eigenvalues not converged
     c_bands:  2 eigenvalues not converged
     c_bands:  2 eigenvalues not converged
     c_bands:  3 eigenvalues not converged
     c_bands:  2 eigenvalues not converged
     c_bands:  1 eigenvalues not converged
     c_bands:  1 eigenvalues not converged
     ethr =  3.35E-05,  avg # of iterations = 15.2

     total cpu time spent up to now is        6.5 secs

     total energy              =    -306.86340551 Ry
     estimated scf accuracy    <       0.02013140 Ry

     iteration #  2     ecut=    60.00 Ry     beta= 0.70
     Davidson diagonalization with overlap
     ethr =  9.15E-05,  avg # of iterations =  4.2

     total cpu time spent up to now is        8.1 secs

     total energy              =    -306.86851747 Ry
     estimated scf accuracy    <       0.00178728 Ry

     iteration #  3     ecut=    60.00 Ry     beta= 0.70
     Davidson diagonalization with overlap
     c_bands:  1 eigenvalues not converged
     ethr =  8.12E-06,  avg # of iterations =  7.6

     total cpu time spent up to now is       10.1 secs

     total energy              =    -306.86944013 Ry
     estimated scf accuracy    <       0.00017218 Ry

     iteration #  4     ecut=    60.00 Ry     beta= 0.70
     Davidson diagonalization with overlap
     c_bands:  1 eigenvalues not converged
     ethr =  7.83E-07,  avg # of iterations =  9.0

     total cpu time spent up to now is       12.4 secs

     total energy              =    -306.86959287 Ry
     estimated scf accuracy    <       0.00007641 Ry

     iteration #  5     ecut=    60.00 Ry     beta= 0.70
     Davidson diagonalization with overlap
     ethr =  3.47E-07,  avg # of iterations =  6.9

     total cpu time spent up to now is       14.3 secs

     total energy              =    -306.86964129 Ry
     estimated scf accuracy    <       0.00003524 Ry

     iteration #  6     ecut=    60.00 Ry     beta= 0.70
     Davidson diagonalization with overlap
     ethr =  1.60E-07,  avg # of iterations =  2.3

     total cpu time spent up to now is       15.5 secs

     total energy              =    -306.86963264 Ry
     estimated scf accuracy    <       0.00001703 Ry

     iteration #  7     ecut=    60.00 Ry     beta= 0.70
     Davidson diagonalization with overlap
     ethr =  7.74E-08,  avg # of iterations =  6.6

     total cpu time spent up to now is       17.3 secs

     total energy              =    -306.86964135 Ry
     estimated scf accuracy    <       0.00000060 Ry

     iteration #  8     ecut=    60.00 Ry     beta= 0.70
     Davidson diagonalization with overlap
     c_bands:  1 eigenvalues not converged
     c_bands:  1 eigenvalues not converged
     ethr =  2.74E-09,  avg # of iterations = 13.3

     total cpu time spent up to now is       20.3 secs

     End of self-consistent calculation

          k = 0.0000 0.0000 0.0000 (  2671 PWs)   bands (ev):

   -40.1404 -40.0760 -19.2241 -18.8909 -18.8909 -18.8326 -18.8326 -18.8155
     3.7530   7.1443   9.3013  10.3561  10.3562  10.4663  10.7595

          k = 0.0000 0.0000 0.0784 (  2677 PWs)   bands (ev):

   -40.1379 -40.0785 -19.2092 -18.8887 -18.8887 -18.8347 -18.8347 -18.8315
     3.8542   6.9899   9.2719  10.3135  10.3136  10.4011  10.7041

          k = 0.0000 0.0000 0.1568 (  2689 PWs)   bands (ev):

   -40.1310 -40.0855 -19.1661 -18.8824 -18.8824 -18.8773 -18.8412 -18.8412
     4.1512   6.5435   9.2809  10.2180  10.2509  10.2510  10.5690

          k = 0.0000 0.0000 0.2353 (  2640 PWs)   bands (ev):

   -40.1206 -40.0960 -19.1008 -18.9445 -18.8728 -18.8728 -18.8505 -18.8505
     4.6230   5.9074   9.4226   9.9564  10.2392  10.2395  10.4171

          k = 0.0000 0.0000-0.3137 (  2628 PWs)   bands (ev):

   -40.1083 -40.1083 -19.0231 -19.0231 -18.8616 -18.8616 -18.8616 -18.8616
     5.2305   5.2305   9.6691   9.6692  10.2975  10.2975  10.2976

          k = 0.0000 0.0962 0.0000 (  2663 PWs)   bands (ev):

   -40.1370 -40.0747 -19.2154 -18.9090 -18.8968 -18.8515 -18.8351 -18.8192
     3.9043   7.2741   9.1768  10.0874  10.4659  10.6350  10.6954

          k = 0.0000 0.0962 0.0784 (  2668 PWs)   bands (ev):

   -40.1347 -40.0771 -19.2013 -18.9064 -18.8945 -18.8597 -18.8375 -18.8289
     4.0040   7.1195   9.1499  10.0833  10.4113  10.5085  10.6339

          k = 0.0000 0.0962 0.1568 (  2661 PWs)   bands (ev):

   -40.1280 -40.0838 -19.1607 -18.8994 -18.8929 -18.8878 -18.8452 -18.8442
     4.2969   6.6708   9.1741  10.0892  10.2374  10.3380  10.6534

          k = 0.0000 0.0962 0.2353 (  2656 PWs)   bands (ev):

   -40.1179 -40.0940 -19.0996 -18.9541 -18.8873 -18.8779 -18.8594 -18.8542
     4.7625   6.0351   9.3359   9.9230  10.1359  10.3230  10.3809

          k = 0.0000 0.0962-0.3137 (  2658 PWs)   bands (ev):

   -40.1060 -40.1060 -19.0270 -19.0270 -18.8736 -18.8736 -18.8661 -18.8661
     5.3632   5.3632   9.6050   9.6050  10.2362  10.2363  10.3809

          k = 0.0000 0.1925 0.0000 (  2665 PWs)   bands (ev):

   -40.1278 -40.0711 -19.1903 -18.9592 -18.9129 -18.9026 -18.8426 -18.8305
     4.3435   7.6225   8.8921   9.6763  10.4104  10.7837  10.8161

          k = 0.0000 0.1925 0.0784 (  2652 PWs)   bands (ev):

   -40.1257 -40.0733 -19.1791 -18.9550 -18.9121 -18.9102 -18.8453 -18.8367
     4.4385   7.4682   8.8768   9.6957  10.4014  10.5454  10.6334

          k = 0.0000 0.1925 0.1568 (  2651 PWs)   bands (ev):

   -40.1195 -40.0795 -19.1475 -18.9485 -18.9354 -18.9027 -18.8532 -18.8530
     4.7175   7.0160   8.9393   9.7523  10.1762  10.4104  10.5428

          k = 0.0000 0.1925 0.2353 (  2651 PWs)   bands (ev):

   -40.1104 -40.0887 -19.1001 -18.9889 -18.9218 -18.8913 -18.8752 -18.8644
     5.1620   6.3886   9.1415   9.7406   9.9599  10.2621  10.5361

          k = 0.0000 0.1925-0.3137 (  2650 PWs)   bands (ev):

   -40.0995 -40.0995 -19.0442 -19.0442 -18.8991 -18.8991 -18.8779 -18.8779
     5.7381   5.7381   9.4378   9.4379  10.0813  10.0814  10.6076

          k = 0.0000 0.2887 0.0000 (  2661 PWs)   bands (ev):

   -40.1146 -40.0668 -19.1525 -19.0283 -18.9704 -18.9341 -18.8536 -18.8492
     5.0253   8.0298   8.5855   9.2515  10.1907  10.4712  10.5716

          k = 0.0000 0.2887 0.0784 (  2648 PWs)   bands (ev):

   -40.1128 -40.0686 -19.1489 -19.0195 -18.9795 -18.9310 -18.8566 -18.8525
     5.1106   7.8807   8.5975   9.2823  10.1632  10.4123  10.5848

          k = 0.0000 0.2887 0.1568 (  2643 PWs)   bands (ev):

   -40.1077 -40.0738 -19.1371 -19.0154 -18.9845 -18.9223 -18.8654 -18.8641
     5.3611   7.4456   8.7158   9.3588  10.0174  10.3006  10.6343

          k = 0.0000 0.2887 0.2353 (  2639 PWs)   bands (ev):

   -40.0999 -40.0816 -19.1151 -19.0477 -18.9529 -18.9093 -18.8860 -18.8785
     5.7605   6.8670   8.9427   9.3964   9.8587  10.1310  10.7353

          k = 0.0000 0.2887-0.3137 (  2636 PWs)   bands (ev):

   -40.0908 -40.0908 -19.0839 -19.0839 -18.9170 -18.9170 -18.8939 -18.8939
     6.2786   6.2786   9.2148   9.2148   9.9340   9.9341  10.8880

          k = 0.0000 0.3849 0.0000 (  2648 PWs)   bands (ev):

   -40.1004 -40.0635 -19.1081 -19.0980 -19.0360 -18.9545 -18.8743 -18.8650
     5.8653   8.1904   8.3373   8.9156  10.2164  10.2240  10.3595

          k = 0.0000 0.3849 0.0784 (  2643 PWs)   bands (ev):

   -40.0990 -40.0649 -19.1344 -19.0671 -19.0404 -18.9512 -18.8743 -18.8685
     5.9324   8.0476   8.4074   8.9573  10.0715  10.3027  10.4090

          k = 0.0000 0.3849 0.1568 (  2641 PWs)   bands (ev):

   -40.0950 -40.0689 -19.1510 -19.0797 -19.0068 -18.9415 -18.8786 -18.8782
     6.1289   7.7139   8.5686   9.0455   9.9257  10.2522  10.5540

          k = 0.0000 0.3849 0.2353 (  2643 PWs)   bands (ev):

   -40.0890 -40.0749 -19.1514 -19.1102 -18.9611 -18.9271 -18.8934 -18.8928
     6.4399   7.2839   8.7911   9.0994   9.8385  10.0834  10.7842

          k = 0.0000 0.3849-0.3137 (  2644 PWs)   bands (ev):

   -40.0820 -40.0820 -19.1365 -19.1365 -18.9215 -18.9215 -18.9100 -18.9100
     6.8389   6.8389   9.0066   9.0066   9.8999   9.8999  11.0791

          k = 0.0000 0.4811 0.0000 (  2658 PWs)   bands (ev):

   -40.0887 -40.0624 -19.1494 -19.0830 -19.0668 -18.9692 -18.9015 -18.8738
     6.7175   8.0247   8.1811   8.6647  10.0534  10.2182  10.4296

          k = 0.0000 0.4811 0.0784 (  2650 PWs)   bands (ev):

   -40.0877 -40.0634 -19.1635 -19.0968 -19.0419 -18.9656 -18.8981 -18.8774
     6.7494   7.9282   8.2803   8.6956  10.0581  10.2802  10.3834

          k = 0.0000 0.4811 0.1568 (  2647 PWs)   bands (ev):

   -40.0848 -40.0662 -19.1822 -19.1253 -18.9979 -18.9553 -18.8943 -18.8878
     6.8465   7.7319   8.4733   8.7931  10.0446  10.2602  10.4630

          k = 0.0000 0.4811 0.2353 (  2649 PWs)   bands (ev):

   -40.0805 -40.0705 -19.1884 -19.1559 -18.9545 -18.9399 -18.9034 -18.9003
     7.0091   7.4833   8.7040   8.9035   9.9879  10.1096  10.7561

          k = 0.0000 0.4811-0.3137 (  2644 PWs)   bands (ev):

   -40.0755 -40.0755 -19.1789 -19.1789 -18.9216 -18.9216 -18.9204 -18.9204
     7.2290   7.2290   8.8866   8.8866   9.9909   9.9911  11.1402

          k = 0.0000-0.5774 0.0000 (  2642 PWs)   bands (ev):

   -40.0837 -40.0627 -19.1681 -19.0998 -19.0474 -18.9746 -18.9156 -18.8769
     7.2333   7.7879   8.1285   8.5497   9.9928  10.1690  10.5288

          k = 0.0000-0.5774 0.0784 (  2656 PWs)   bands (ev):

   -40.0829 -40.0635 -19.1793 -19.1126 -19.0286 -18.9709 -18.9104 -18.8807
     7.2134   7.7647   8.2384   8.5475  10.0468  10.2343  10.4578

          k = 0.0000-0.5774 0.1568 (  2642 PWs)   bands (ev):

   -40.0806 -40.0657 -19.1964 -19.1418 -18.9892 -18.9604 -18.9026 -18.8912
     7.1991   7.6715   8.5006   8.5998  10.1418  10.2780  10.4277

          k = 0.0000-0.5774 0.2353 (  2648 PWs)   bands (ev):

   -40.0772 -40.0691 -19.2032 -19.1726 -18.9496 -18.9446 -18.9072 -18.9037
     7.2431   7.5150   8.7383   8.7688  10.0947  10.1491  10.7385

          k = 0.0000-0.5774-0.3137 (  2652 PWs)   bands (ev):

   -40.0732 -40.0732 -19.1949 -19.1949 -18.9260 -18.9260 -18.9195 -18.9195
     7.3557   7.3557   8.8552   8.8552  10.0640  10.0641  11.1485

          k = 0.0833 0.1443 0.0000 (  2659 PWs)   bands (ev):

   -40.1308 -40.0722 -19.1984 -18.9396 -18.9160 -18.8796 -18.8426 -18.8267
     4.1998   7.5155   8.9773   9.7882  10.4910  10.6966  10.7659

          k = 0.0833 0.1443 0.0784 (  2657 PWs)   bands (ev):

   -40.1286 -40.0744 -19.1862 -18.9360 -18.9154 -18.8875 -18.8452 -18.8334
     4.2965   7.3608   8.9574   9.8032  10.4988  10.5145  10.5885

          k = 0.0833 0.1443 0.1568 (  2652 PWs)   bands (ev):

   -40.1222 -40.0808 -19.1513 -18.9293 -18.9256 -18.8975 -18.8525 -18.8492
     4.5803   6.9087   9.0074   9.8515  10.2026  10.4386  10.4964

          k = 0.0833 0.1443 0.2353 (  2652 PWs)   bands (ev):

   -40.1128 -40.0904 -19.0992 -18.9765 -18.9099 -18.8908 -18.8678 -18.8631
     5.0324   6.2767   9.1992   9.8166   9.9931  10.2914  10.4821

          k = 0.0833 0.1443-0.3137 (  2640 PWs)   bands (ev):

   -40.1016 -40.1016 -19.0374 -19.0374 -18.8922 -18.8922 -18.8743 -18.8743
     5.6177   5.6177   9.4924   9.4924  10.1221  10.1223  10.5382

          k = 0.0833 0.2406 0.0000 (  2659 PWs)   bands (ev):

   -40.1196 -40.0683 -19.1669 -18.9946 -18.9609 -18.9136 -18.8555 -18.8417
     4.7624   7.9128   8.6997   9.3771  10.2614  10.4666  10.7577

          k = 0.0833 0.2406 0.0784 (  2655 PWs)   bands (ev):

   -40.1176 -40.0702 -19.1596 -18.9887 -18.9649 -18.9168 -18.8587 -18.8451
     4.8520   7.7601   8.6965   9.4047  10.2709  10.3883  10.6819

          k = 0.0833 0.2406 0.1568 (  2645 PWs)   bands (ev):

   -40.1121 -40.0758 -19.1384 -18.9894 -18.9657 -18.9175 -18.8674 -18.8562
     5.1154   7.3096   8.7927   9.4803  10.0914  10.3070  10.6318

          k = 0.0833 0.2406 0.2353 (  2641 PWs)   bands (ev):

   -40.1038 -40.0841 -19.1058 -19.0237 -18.9409 -18.9109 -18.8806 -18.8738
     5.5355   6.7015   9.0157   9.5243   9.8769  10.1468  10.6837

          k = 0.0833 0.2406-0.3137 (  2644 PWs)   bands (ev):

   -40.0940 -40.0940 -19.0656 -19.0656 -18.9147 -18.9147 -18.8878 -18.8878
     6.0813   6.0813   9.3063   9.3064   9.9521   9.9522  10.7896

          k = 0.0833 0.3368 0.0000 (  2653 PWs)   bands (ev):

   -40.1058 -40.0645 -19.1254 -19.0628 -19.0156 -18.9450 -18.8694 -18.8640
     5.5306   8.2320   8.4453   9.0008  10.1575  10.2106  10.5155

          k = 0.0833 0.3368 0.0784 (  2647 PWs)   bands (ev):

   -40.1042 -40.0661 -19.1323 -19.0490 -19.0190 -18.9449 -18.8742 -18.8629
     5.6071   8.0822   8.4886   9.0385  10.0672  10.2770  10.4983

          k = 0.0833 0.3368 0.1568 (  2640 PWs)   bands (ev):

   -40.0998 -40.0706 -19.1376 -19.0545 -18.9986 -18.9402 -18.8848 -18.8667
     5.8317   7.6844   8.6370   9.1286   9.9245  10.2263  10.5683

          k = 0.0833 0.3368 0.2353 (  2647 PWs)   bands (ev):

   -40.0931 -40.0773 -19.1309 -19.0831 -18.9606 -18.9295 -18.8986 -18.8803
     6.1887   7.1717   8.8626   9.2009   9.7906  10.0339  10.7582

          k = 0.0833 0.3368-0.3137 (  2644 PWs)   bands (ev):

   -40.0852 -40.0852 -19.1113 -19.1113 -18.9308 -18.9308 -18.8994 -18.8994
     6.6502   6.6502   9.0987   9.0987   9.8352   9.8352  10.9953

          k = 0.0833 0.4330 0.0000 (  2651 PWs)   bands (ev):

   -40.0926 -40.0625 -19.1231 -19.0814 -19.0634 -18.9695 -18.8913 -18.8813
     6.3950   8.2048   8.2630   8.7352  10.0427  10.2834  10.3270

          k = 0.0833 0.4330 0.0784 (  2648 PWs)   bands (ev):

   -40.0915 -40.0637 -19.1422 -19.0815 -19.0459 -18.9669 -18.8927 -18.8807
     6.4473   8.0716   8.3576   8.7865   9.9912  10.2671  10.3706

          k = 0.0833 0.4330 0.1568 (  2650 PWs)   bands (ev):

   -40.0882 -40.0669 -19.1621 -19.1056 -19.0042 -18.9567 -18.9017 -18.8794
     6.6006   7.8174   8.5266   8.8994   9.8875  10.1599  10.5235

          k = 0.0833 0.4330 0.2353 (  2645 PWs)   bands (ev):

   -40.0833 -40.0718 -19.1675 -19.1345 -18.9679 -18.9384 -18.9147 -18.8862
     6.8427   7.4929   8.7501   8.9934   9.8003   9.9734  10.7743

          k = 0.0833 0.4330-0.3137 (  2660 PWs)   bands (ev):

   -40.0776 -40.0776 -19.1575 -19.1575 -18.9431 -18.9431 -18.9041 -18.9041
     7.1516   7.1516   8.9481   8.9481   9.8176   9.8177  11.0998

          k = 0.0833 0.5292 0.0000 (  2652 PWs)   bands (ev):

   -40.0837 -40.0626 -19.1580 -19.0910 -19.0477 -18.9830 -18.9153 -18.8882
     7.1548   7.9517   8.1698   8.5484   9.9767  10.1276  10.5242

          k = 0.0833 0.5292 0.0784 (  2642 PWs)   bands (ev):

   -40.0829 -40.0634 -19.1691 -19.1042 -19.0304 -18.9774 -18.9123 -18.8894
     7.1600   7.9001   8.2716   8.5710   9.9919  10.1348  10.5111

          k = 0.0833 0.5292 0.1568 (  2651 PWs)   bands (ev):

   -40.0806 -40.0657 -19.1862 -19.1333 -18.9995 -18.9593 -18.9153 -18.8889
     7.1923   7.7744   8.4901   8.6767   9.9917  10.0729  10.5835

          k = 0.0833 0.5292 0.2353 (  2647 PWs)   bands (ev):

   -40.0772 -40.0691 -19.1933 -19.1636 -18.9733 -18.9346 -18.9261 -18.8908
     7.2770   7.5981   8.7285   8.8509   9.8863   9.9570  10.8268

          k = 0.0833 0.5292-0.3137 (  2644 PWs)   bands (ev):

   -40.0732 -40.0732 -19.1854 -19.1854 -18.9508 -18.9508 -18.9045 -18.9045
     7.4187   7.4187   8.8964   8.8964   9.8486   9.8487  11.1776

          k = 0.1667 0.2887 0.0000 (  2660 PWs)   bands (ev):

   -40.1077 -40.0650 -19.1315 -19.0327 -19.0251 -18.9338 -18.8791 -18.8606
     5.4168   8.2681   8.4999   9.0052  10.1477  10.1662  10.6041

          k = 0.1667 0.2887 0.0784 (  2652 PWs)   bands (ev):

   -40.1061 -40.0666 -19.1333 -19.0292 -19.0194 -18.9390 -18.8821 -18.8598
     5.4965   8.1134   8.5309   9.0389  10.1161  10.1971  10.5496

          k = 0.1667 0.2887 0.1568 (  2642 PWs)   bands (ev):

   -40.1015 -40.0712 -19.1321 -19.0446 -18.9882 -18.9446 -18.8902 -18.8633
     5.7307   7.6856   8.6735   9.1319   9.9666  10.1878  10.5417

          k = 0.1667 0.2887 0.2353 (  2646 PWs)   bands (ev):

   -40.0946 -40.0782 -19.1211 -19.0710 -18.9539 -18.9416 -18.8996 -18.8764
     6.1038   7.1386   8.9011   9.2297   9.7837   9.9929  10.7155

          k = 0.1667 0.2887-0.3137 (  2650 PWs)   bands (ev):

   -40.0864 -40.0864 -19.0993 -19.0993 -18.9369 -18.9369 -18.8957 -18.8957
     6.5880   6.5880   9.1447   9.1447   9.7920   9.7920  10.9389

          k = 0.1667 0.3849 0.0000 (  2647 PWs)   bands (ev):

   -40.0948 -40.0627 -19.0892 -19.0885 -19.0596 -18.9662 -18.9015 -18.8860
     6.2287   8.3495   8.4247   8.7053   9.9542  10.2341  10.3627

          k = 0.1667 0.3849 0.0784 (  2652 PWs)   bands (ev):

   -40.0936 -40.0639 -19.1189 -19.0795 -19.0356 -18.9710 -18.9058 -18.8804
     6.2920   8.2299   8.4845   8.7505   9.9177  10.2580  10.3123

          k = 0.1667 0.3849 0.1568 (  2651 PWs)   bands (ev):

   -40.0901 -40.0674 -19.1394 -19.0934 -18.9973 -18.9718 -18.9143 -18.8747
     6.4773   7.9407   8.6296   8.8596   9.8217  10.0793  10.4379

          k = 0.1667 0.3849 0.2353 (  2648 PWs)   bands (ev):

   -40.0849 -40.0726 -19.1448 -19.1157 -18.9765 -18.9577 -18.9162 -18.8796
     6.7696   7.5532   8.8316   8.9854   9.6933   9.8362  10.6710

          k = 0.1667 0.3849-0.3137 (  2652 PWs)   bands (ev):

   -40.0788 -40.0788 -19.1356 -19.1356 -18.9627 -18.9627 -18.8970 -18.8970
     7.1422   7.1422   9.0002   9.0002   9.6626   9.6626  10.9799

          k = 0.1667 0.4811 0.0000 (  2638 PWs)   bands (ev):

   -40.0838 -40.0626 -19.1314 -19.0758 -19.0484 -18.9976 -18.9166 -18.9146
     7.0560   8.2512   8.2627   8.5374   9.8707  10.1125  10.4921

          k = 0.1667 0.4811 0.0784 (  2651 PWs)   bands (ev):

   -40.0830 -40.0634 -19.1420 -19.0924 -19.0305 -18.9923 -18.9257 -18.9016
     7.0914   8.1505   8.3536   8.6089   9.8425  10.0493  10.5104

          k = 0.1667 0.4811 0.1568 (  2651 PWs)   bands (ev):

   -40.0807 -40.0657 -19.1597 -19.1179 -19.0165 -18.9675 -18.9342 -18.8880
     7.1953   7.9929   8.5154   8.7694   9.7529   9.8750  10.5980

          k = 0.1667 0.4811 0.2353 (  2650 PWs)   bands (ev):

   -40.0772 -40.0691 -19.1684 -19.1443 -19.0018 -18.9652 -18.9190 -18.8844
     7.3597   7.7901   8.7437   8.9378   9.6234   9.6434  10.7855

          k = 0.1667 0.4811-0.3137 (  2656 PWs)   bands (ev):

   -40.0732 -40.0732 -19.1630 -19.1630 -18.9831 -18.9831 -18.8954 -18.8954
     7.5673   7.5673   8.9519   8.9519   9.5290   9.5291  11.0699

          k = 0.1667 0.5774 0.0000 (  2648 PWs)   bands (ev):

   -40.0788 -40.0634 -19.1471 -19.0800 -19.0277 -19.0110 -18.9310 -18.9220
     7.5601   8.0332   8.2350   8.4424   9.9138   9.9464  10.6203

          k = 0.1667 0.5774 0.0784 (  2643 PWs)   bands (ev):

   -40.0783 -40.0640 -19.1553 -19.0938 -19.0330 -18.9876 -18.9375 -18.9110
     7.5525   8.0201   8.3264   8.4750   9.8774   9.9109  10.6334

          k = 0.1667 0.5774 0.1568 (  2656 PWs)   bands (ev):

   -40.0766 -40.0657 -19.1705 -19.1238 -19.0272 -18.9508 -18.9506 -18.8949
     7.5597   7.9584   8.5564   8.5960   9.7698   9.7783  10.7105

          k = 0.1667 0.5774 0.2353 (  2649 PWs)   bands (ev):

   -40.0741 -40.0682 -19.1786 -19.1534 -19.0114 -18.9694 -18.9168 -18.8873
     7.6145   7.8450   8.8030   8.8388   9.5597   9.5976  10.8891

          k = 0.1667 0.5774-0.3137 (  2648 PWs)   bands (ev):

   -40.0711 -40.0711 -19.1730 -19.1730 -18.9908 -18.9908 -18.8945 -18.8945
     7.7176   7.7176   8.9819   8.9819   9.4365   9.4365  11.1587

          k = 0.2500 0.4330 0.0000 (  2640 PWs)   bands (ev):

   -40.0838 -40.0625 -19.1087 -19.0790 -19.0487 -18.9970 -18.9374 -18.9143
     7.0198   8.3156   8.4464   8.4870   9.7948  10.1225  10.4587

          k = 0.2500 0.4330 0.0784 (  2643 PWs)   bands (ev):

   -40.0830 -40.0633 -19.1108 -19.1070 -19.0164 -19.0072 -18.9399 -18.9037
     7.0668   8.2532   8.4835   8.5629   9.7786  10.0180  10.4689

          k = 0.2500 0.4330 0.1568 (  2646 PWs)   bands (ev):

   -40.0807 -40.0656 -19.1355 -19.1200 -19.0183 -18.9834 -18.9393 -18.8879
     7.2023   8.1149   8.5932   8.7212   9.7117   9.7748  10.5258

          k = 0.2500 0.4330 0.2353 (  2655 PWs)   bands (ev):

   -40.0772 -40.0691 -19.1499 -19.1361 -19.0145 -18.9845 -18.9162 -18.8827
     7.4097   7.9098   8.7632   8.8975   9.5172   9.5753  10.6851

          k = 0.2500 0.4330-0.3137 (  2660 PWs)   bands (ev):

   -40.0732 -40.0732 -19.1490 -19.1490 -19.0002 -19.0002 -18.8927 -18.8927
     7.6595   7.6595   8.9311   8.9311   9.4350   9.4351  10.9703

          k = 0.2500 0.5292 0.0000 (  2639 PWs)   bands (ev):

   -40.0754 -40.0645 -19.1239 -19.0678 -19.0317 -19.0124 -18.9602 -18.9434
     7.7126   8.2631   8.3175   8.3812   9.7688   9.8968  10.6828

          k = 0.2500 0.5292 0.0784 (  2642 PWs)   bands (ev):

   -40.0750 -40.0649 -19.1269 -19.0867 -19.0471 -18.9872 -18.9644 -18.9268
     7.7410   8.2365   8.3495   8.4701   9.7283   9.8016  10.6870

          k = 0.2500 0.5292 0.1568 (  2642 PWs)   bands (ev):

   -40.0738 -40.0661 -19.1393 -19.1137 -19.0568 -18.9863 -18.9396 -18.9026
     7.8195   8.1932   8.4729   8.6532   9.5516   9.6143  10.7222

          k = 0.2500 0.5292 0.2353 (  2657 PWs)   bands (ev):

   -40.0720 -40.0679 -19.1516 -19.1378 -19.0468 -19.0051 -18.9081 -18.8882
     7.9291   8.1333   8.6769   8.8906   9.2513   9.4106  10.8363

          k = 0.2500 0.5292-0.3137 (  2654 PWs)   bands (ev):

   -40.0699 -40.0699 -19.1519 -19.1519 -19.0270 -19.0270 -18.8898 -18.8898
     8.0425   8.0425   8.9418   8.9418   9.1602   9.1602  11.0659

          k = 0.3333 0.5774 0.0000 (  2616 PWs)   bands (ev):

   -40.0688 -40.0688 -19.1143 -19.0529 -19.0529 -18.9858 -18.9766 -18.9766
     8.1625   8.1625   8.2659   8.3543   9.7656   9.7656  10.7772

          k = 0.3333 0.5774 0.0784 (  2640 PWs)   bands (ev):

   -40.0688 -40.0688 -19.1096 -19.0745 -19.0745 -18.9908 -18.9549 -18.9549
     8.2081   8.2081   8.2845   8.3727   9.6879   9.6879  10.7758

          k = 0.3333 0.5774 0.1568 (  2667 PWs)   bands (ev):

   -40.0688 -40.0688 -19.1077 -19.1077 -19.0959 -19.0050 -18.9213 -18.9213
     8.3347   8.3385   8.3385   8.4149   9.4867   9.4867  10.7927

          k = 0.3333 0.5774 0.2353 (  2661 PWs)   bands (ev):

   -40.0688 -40.0688 -19.1317 -19.1317 -19.0752 -19.0260 -18.8967 -18.8967
     8.3973   8.4486   8.5268   8.5268   9.2362   9.2362  10.8796

          k = 0.3333 0.5774-0.3137 (  2652 PWs)   bands (ev):

   -40.0688 -40.0688 -19.1402 -19.1402 -19.0506 -19.0506 -18.8878 -18.8878
     8.4434   8.4434   8.6581   8.6581   9.0810   9.0810  11.0840

     the Fermi energy is     8.8194 ev

!    total energy              =    -306.86964304 Ry
     total all-electron energy =     -3050.010414 Ry
     estimated scf accuracy    <          6.1E-09 Ry
     smearing contrib. (-TS)   =      -0.00103847 Ry
     internal energy E=F+TS    =    -306.86860458 Ry

     The total energy is F=E-TS. E is the sum of the following terms:
     one-electron contribution =     -74.39568291 Ry
     hartree contribution      =      42.27982030 Ry
     xc contribution           =     -34.52833530 Ry
     ewald contribution        =    -126.46581261 Ry
     one-center paw contrib.   =    -113.75859405 Ry

     convergence has been achieved in   8 iterations

     Forces acting on atoms (cartesian axes, Ry/au):

     atom    1 type  1   force =     0.00000000    0.00000000    0.00000000
     atom    2 type  1   force =    -0.00000000    0.00000000    0.00000000
     The non-local contrib.  to forces
     atom    1 type  1   force =     0.00000000   -0.00000000    0.00000000
     atom    2 type  1   force =     0.00000000    0.00000000    0.00000000
     The ionic contribution  to forces
     atom    1 type  1   force =     0.00000000   -0.00000000    0.00000000
     atom    2 type  1   force =    -0.00000000    0.00000000    0.00000000
     The local contribution  to forces
     atom    1 type  1   force =    -0.00000000   -0.00000000    0.00000000
     atom    2 type  1   force =    -0.00000000    0.00000000    0.00000000
     The core correction contribution to forces
     atom    1 type  1   force =    -0.00000000   -0.00000000    0.00000000
     atom    2 type  1   force =     0.00000000   -0.00000000    0.00000000
     The Hubbard contrib.    to forces
     atom    1 type  1   force =     0.00000000    0.00000000    0.00000000
     atom    2 type  1   force =     0.00000000    0.00000000    0.00000000
     The SCF correction term to forces
     atom    1 type  1   force =    -0.00000000   -0.00000000   -0.00000000
     atom    2 type  1   force =    -0.00000000    0.00000000   -0.00000000

     Total force =     0.000000     Total SCF correction =     0.000000


     Computing stress (Cartesian axis) and pressure

          total   stress  (Ry/bohr**3)                   (kbar)     P=      -61.30
  -0.00037658   0.00000000   0.00000000          -55.40        0.00        0.00
   0.00000000  -0.00037658  -0.00000000            0.00      -55.40       -0.00
   0.00000000   0.00000000  -0.00049699            0.00        0.00      -73.11


     BFGS Geometry Optimization
     Energy error            =      0.0E+00 Ry
     Gradient error          =      2.8E-27 Ry/Bohr
     Cell gradient error     =      7.3E+01 kbar

     number of scf cycles    =   1
     number of bfgs steps    =   0

     enthalpy           new  =    -306.8696430431 Ry

     new trust radius        =       0.0456533939 bohr
     new conv_thr            =       0.0000000100 Ry

     new unit-cell volume =    327.08441 a.u.^3 (    48.46891 Ang^3 )
     density =      3.05571 g/cm^3

CELL_PARAMETERS (alat=  6.25310370)
   0.990585385   0.000000000   0.000000000
  -0.495292693   0.857872108   0.000000000
   0.000000000  -0.000000000   1.574194835

ATOMIC_POSITIONS (crystal)
Sc            0.0000000000        0.0000000000       -0.0000000000
Sc            0.6666666667        0.3333333333        0.5000000000



     Writing config-only to output data dir sc_vcrelax.out/scandium.save/
     NEW-OLD atomic charge density approx. for the potential

     Check: negative core charge=   -0.000009
     extrapolated charge   21.29790, renormalised to   22.00000

     total cpu time spent up to now is       21.6 secs

     Self-consistent Calculation

     iteration #  1     ecut=    60.00 Ry     beta= 0.70
     Davidson diagonalization with overlap
     c_bands:  1 eigenvalues not converged
     c_bands:  1 eigenvalues not converged
     c_bands:  1 eigenvalues not converged
     c_bands:  1 eigenvalues not converged
     c_bands:  1 eigenvalues not converged
     c_bands:  1 eigenvalues not converged
     c_bands:  1 eigenvalues not converged
     c_bands:  3 eigenvalues not converged
     c_bands:  5 eigenvalues not converged
     c_bands:  3 eigenvalues not converged
     c_bands:  4 eigenvalues not converged
     c_bands:  3 eigenvalues not converged
     c_bands:  4 eigenvalues not converged
     c_bands:  3 eigenvalues not converged
     c_bands:  4 eigenvalues not converged
     c_bands:  1 eigenvalues not converged
     c_bands:  1 eigenvalues not converged
     c_bands:  4 eigenvalues not converged
     c_bands:  1 eigenvalues not converged
     c_bands:  1 eigenvalues not converged
     c_bands:  1 eigenvalues not converged
     c_bands:  2 eigenvalues not converged
     c_bands:  2 eigenvalues not converged
     c_bands:  1 eigenvalues not converged
     c_bands:  2 eigenvalues not converged
     c_bands:  1 eigenvalues not converged
     c_bands:  4 eigenvalues not converged
     c_bands:  1 eigenvalues not converged
     c_bands:  3 eigenvalues not converged
     c_bands:  3 eigenvalues not converged
     c_bands:  4 eigenvalues not converged
     c_bands:  4 eigenvalues not converged
     c_bands:  5 eigenvalues not converged
     c_bands:  5 eigenvalues not converged
     c_bands:  5 eigenvalues not converged
     c_bands:  1 eigenvalues not converged
     c_bands:  2 eigenvalues not converged
     c_bands:  1 eigenvalues not converged
     c_bands:  1 eigenvalues not converged
     c_bands:  1 eigenvalues not converged
     c_bands:  4 eigenvalues not converged
     c_bands:  2 eigenvalues not converged
     c_bands:  3 eigenvalues not converged
     c_bands:  2 eigenvalues not converged
     c_bands:  2 eigenvalues not converged
     c_bands:  4 eigenvalues not converged
     c_bands:  2 eigenvalues not converged
     c_bands:  2 eigenvalues not converged
     c_bands:  5 eigenvalues not converged
     c_bands:  1 eigenvalues not converged
     c_bands:  4 eigenvalues not converged
     c_bands:  2 eigenvalues not converged
     c_bands:  5 eigenvalues not converged
     c_bands:  3 eigenvalues not converged
     c_bands:  1 eigenvalues not converged
     c_bands:  2 eigenvalues not converged
     c_bands:  2 eigenvalues not converged
     c_bands:  1 eigenvalues not converged
     c_bands:  5 eigenvalues not converged
     c_bands:  5 eigenvalues not converged
     c_bands:  1 eigenvalues not converged
     c_bands:  2 eigenvalues not converged
     c_bands:  1 eigenvalues not converged
     ethr =  1.00E-06,  avg # of iterations = 19.7

     total cpu time spent up to now is       26.7 secs

     total energy              =    -306.73214723 Ry
     estimated scf accuracy    <       0.10239214 Ry

     iteration #  2     ecut=    60.00 Ry     beta= 0.70
     Davidson diagonalization with overlap
     ethr =  4.65E-04,  avg # of iterations =  7.4

     total cpu time spent up to now is       29.0 secs

     total energy              =    -306.87715308 Ry
     estimated scf accuracy    <       0.17635822 Ry

     iteration #  3     ecut=    60.00 Ry     beta= 0.70
     Davidson diagonalization with overlap
     ethr =  4.65E-04,  avg # of iterations =  1.3

     total cpu time spent up to now is       30.1 secs

     total energy              =    -306.87263048 Ry
     estimated scf accuracy    <       0.05213883 Ry

     iteration #  4     ecut=    60.00 Ry     beta= 0.70
     Davidson diagonalization with overlap
     ethr =  2.37E-04,  avg # of iterations =  2.4

     total cpu time spent up to now is       31.3 secs

     total energy              =    -306.87196336 Ry
     estimated scf accuracy    <       0.02305562 Ry

     iteration #  5     ecut=    60.00 Ry     beta= 0.70
     Davidson diagonalization with overlap
     ethr =  1.05E-04,  avg # of iterations =  2.3

     total cpu time spent up to now is       32.5 secs

     total energy              =    -306.87323648 Ry
     estimated scf accuracy    <       0.01174424 Ry

     iteration #  6     ecut=    60.00 Ry     beta= 0.70
     Davidson diagonalization with overlap
     ethr =  5.34E-05,  avg # of iterations =  2.9

     total cpu time spent up to now is       33.7 secs

     total energy              =    -306.87526469 Ry
     estimated scf accuracy    <       0.00931465 Ry

     iteration #  7     ecut=    60.00 Ry     beta= 0.70
     Davidson diagonalization with overlap
     ethr =  4.23E-05,  avg # of iterations =  1.7

     total cpu time spent up to now is       34.9 secs

     total energy              =    -306.87704555 Ry
     estimated scf accuracy    <       0.00985589 Ry

     iteration #  8     ecut=    60.00 Ry     beta= 0.70
     Davidson diagonalization with overlap
     ethr =  4.23E-05,  avg # of iterations =  1.0

     total cpu time spent up to now is       35.9 secs

     total energy              =    -306.88601767 Ry
     estimated scf accuracy    <       0.01189073 Ry

     iteration #  9     ecut=    60.00 Ry     beta= 0.70
     Davidson diagonalization with overlap
     ethr =  4.23E-05,  avg # of iterations =  1.5

     total cpu time spent up to now is       37.0 secs

     total energy              =    -306.87776556 Ry
     estimated scf accuracy    <       0.02889184 Ry

     iteration # 10     ecut=    60.00 Ry     beta= 0.70
     Davidson diagonalization with overlap
     ethr =  4.23E-05,  avg # of iterations =  1.1

     total cpu time spent up to now is       38.0 secs

     total energy              =    -306.87480849 Ry
     estimated scf accuracy    <       0.01478459 Ry

     iteration # 11     ecut=    60.00 Ry     beta= 0.70
     Davidson diagonalization with overlap
     ethr =  4.23E-05,  avg # of iterations =  1.3

     total cpu time spent up to now is       39.1 secs

     total energy              =    -306.87499574 Ry
     estimated scf accuracy    <       0.00799697 Ry

     iteration # 12     ecut=    60.00 Ry     beta= 0.70
     Davidson diagonalization with overlap
     ethr =  3.63E-05,  avg # of iterations =  1.0

     total cpu time spent up to now is       40.2 secs

     total energy              =    -306.87747041 Ry
     estimated scf accuracy    <       0.00732456 Ry

     iteration # 13     ecut=    60.00 Ry     beta= 0.70
     Davidson diagonalization with overlap
     ethr =  3.33E-05,  avg # of iterations =  1.0

     total cpu time spent up to now is       42.5 secs

     total energy              =    -306.87904512 Ry
     estimated scf accuracy    <       0.01120101 Ry

     iteration # 14     ecut=    60.00 Ry     beta= 0.70
     Davidson diagonalization with overlap
     ethr =  3.33E-05,  avg # of iterations =  1.0

     total cpu time spent up to now is       47.4 secs

     total energy              =    -306.86792151 Ry
     estimated scf accuracy    <       0.01375562 Ry

     iteration # 15     ecut=    60.00 Ry     beta= 0.70
     Davidson diagonalization with overlap
     ethr =  3.33E-05,  avg # of iterations =  6.3

     total cpu time spent up to now is       49.3 secs

     total energy              =    -306.87200839 Ry
     estimated scf accuracy    <       0.00447017 Ry

     iteration # 16     ecut=    60.00 Ry     beta= 0.70
     Davidson diagonalization with overlap
     ethr =  2.03E-05,  avg # of iterations =  4.0

     total cpu time spent up to now is       51.1 secs

     total energy              =    -306.87339222 Ry
     estimated scf accuracy    <       0.00006815 Ry

     iteration # 17     ecut=    60.00 Ry     beta= 0.70
     Davidson diagonalization with overlap
     ethr =  3.10E-07,  avg # of iterations = 10.3

     total cpu time spent up to now is       65.0 secs

     total energy              =    -306.87356218 Ry
     estimated scf accuracy    <       0.00014741 Ry

     iteration # 18     ecut=    60.00 Ry     beta= 0.70
     Davidson diagonalization with overlap
     ethr =  3.10E-07,  avg # of iterations =  1.5

     total cpu time spent up to now is       75.1 secs

     total energy              =    -306.87356127 Ry
     estimated scf accuracy    <       0.00006298 Ry

     iteration # 19     ecut=    60.00 Ry     beta= 0.70
     Davidson diagonalization with overlap
     ethr =  2.86E-07,  avg # of iterations = 10.1

     total cpu time spent up to now is       92.3 secs

     total energy              =    -306.87438507 Ry
     estimated scf accuracy    <       0.00067350 Ry

     iteration # 20     ecut=    60.00 Ry     beta= 0.70
     Davidson diagonalization with overlap
     ethr =  2.86E-07,  avg # of iterations =  8.1

     total cpu time spent up to now is      103.1 secs

     total energy              =    -306.87396231 Ry
     estimated scf accuracy    <       0.00241329 Ry

     iteration # 21     ecut=    60.00 Ry     beta= 0.70
     Davidson diagonalization with overlap
     ethr =  2.86E-07,  avg # of iterations =  5.6

     total cpu time spent up to now is      107.9 secs

     total energy              =    -306.87330335 Ry
     estimated scf accuracy    <       0.00124080 Ry

     iteration # 22     ecut=    60.00 Ry     beta= 0.70
     Davidson diagonalization with overlap
     ethr =  2.86E-07,  avg # of iterations =  8.6

     total cpu time spent up to now is      115.1 secs

     total energy              =    -306.87354530 Ry
     estimated scf accuracy    <       0.00000889 Ry

     iteration # 23     ecut=    60.00 Ry     beta= 0.70
     Davidson diagonalization with overlap
     ethr =  4.04E-08,  avg # of iterations =  9.1

     total cpu time spent up to now is      128.0 secs

     total energy              =    -306.87355288 Ry
     estimated scf accuracy    <       0.00001782 Ry

     iteration # 24     ecut=    60.00 Ry     beta= 0.70
     Davidson diagonalization with overlap
     ethr =  4.04E-08,  avg # of iterations =  4.0

     total cpu time spent up to now is      157.3 secs

     total energy              =    -306.87355527 Ry
     estimated scf accuracy    <       0.00000081 Ry

     iteration # 25     ecut=    60.00 Ry     beta= 0.70
     Davidson diagonalization with overlap
     ethr =  3.69E-09,  avg # of iterations =  7.0

     total cpu time spent up to now is      193.3 secs

     End of self-consistent calculation

          k = 0.0000 0.0000 0.0000 (  2671 PWs)   bands (ev):

   -39.7053 -39.6307 -18.8178 -18.4453 -18.4453 -18.3799 -18.3799 -18.3603
     4.0515   7.4664   9.7411  10.7488  10.7488  10.8841  11.1755

          k = 0.0000-0.0000 0.0794 (  2677 PWs)   bands (ev):

   -39.7025 -39.6336 -18.8012 -18.4428 -18.4428 -18.3823 -18.3823 -18.3783
     4.1561   7.3217   9.6961  10.7029  10.7029  10.8156  11.1164

          k = 0.0000-0.0000 0.1588 (  2689 PWs)   bands (ev):

   -39.6944 -39.6418 -18.7529 -18.4358 -18.4358 -18.4296 -18.3895 -18.3895
     4.4626   6.8907   9.6787  10.6236  10.6360  10.6360  10.9726

          k = 0.0000-0.0000 0.2382 (  2640 PWs)   bands (ev):

   -39.6824 -39.6539 -18.6800 -18.5051 -18.4250 -18.4250 -18.4000 -18.4000
     4.9482   6.2571   9.8061  10.3504  10.6234  10.6236  10.8113

          k = 0.0000 0.0000-0.3176 (  2628 PWs)   bands (ev):

   -39.6681 -39.6681 -18.5932 -18.5932 -18.4125 -18.4125 -18.4125 -18.4125
     5.5703   5.5703  10.0537  10.0537  10.6848  10.6848  10.6849

          k = 0.0000 0.0971 0.0000 (  2663 PWs)   bands (ev):

   -39.7015 -39.6292 -18.8081 -18.4653 -18.4519 -18.4008 -18.3826 -18.3645
     4.2068   7.5990   9.6041  10.4711  10.8628  11.0509  11.1146

          k = 0.0000 0.0971 0.0794 (  2668 PWs)   bands (ev):

   -39.6988 -39.6320 -18.7923 -18.4624 -18.4493 -18.4100 -18.3852 -18.3753
     4.3098   7.4546   9.5618  10.4663  10.8041  10.9214  11.0453

          k = 0.0000 0.0971 0.1588 (  2661 PWs)   bands (ev):

   -39.6910 -39.6399 -18.7470 -18.4546 -18.4473 -18.4418 -18.3936 -18.3928
     4.6118   7.0215   9.5607  10.4716  10.6375  10.7260  11.0583

          k = 0.0000 0.0971 0.2382 (  2656 PWs)   bands (ev):

   -39.6793 -39.6517 -18.6788 -18.5160 -18.4409 -18.4306 -18.4095 -18.4041
     5.0907   6.3876   9.7098  10.3105  10.5195  10.7099  10.7782

          k = 0.0000 0.0971-0.3176 (  2658 PWs)   bands (ev):

   -39.6655 -39.6655 -18.5976 -18.5976 -18.4256 -18.4256 -18.4174 -18.4174
     5.7057   5.7057   9.9818   9.9818  10.6253  10.6254  10.7712

          k = 0.0000 0.1943 0.0000 (  2665 PWs)   bands (ev):

   -39.6910 -39.6253 -18.7800 -18.5208 -18.4697 -18.4573 -18.3907 -18.3772
     4.6570   7.9533   9.2910  10.0414  10.8168  11.1929  11.2191

          k = 0.0000 0.1943 0.0794 (  2652 PWs)   bands (ev):

   -39.6885 -39.6278 -18.7676 -18.5161 -18.4682 -18.4667 -18.3937 -18.3840
     4.7547   7.8111   9.2599  10.0614  10.8072  10.9539  11.0312

          k = 0.0000 0.1943 0.1588 (  2651 PWs)   bands (ev):

   -39.6814 -39.6350 -18.7323 -18.5092 -18.4942 -18.4582 -18.4023 -18.4021
     5.0417   7.3746   9.3002  10.1195  10.5715  10.8181  10.9364

          k = 0.0000 0.1943 0.2382 (  2651 PWs)   bands (ev):

   -39.6708 -39.6456 -18.6794 -18.5549 -18.4787 -18.4454 -18.4266 -18.4152
     5.4978   6.7473   9.4968  10.1078  10.3475  10.6618  10.9302

          k = 0.0000 0.1943-0.3176 (  2650 PWs)   bands (ev):

   -39.6582 -39.6582 -18.6169 -18.6169 -18.4533 -18.4533 -18.4304 -18.4304
     6.0868   6.0868   9.7992   9.7992  10.4713  10.4713  11.0060

          k = 0.0000 0.2914 0.0000 (  2661 PWs)   bands (ev):

   -39.6759 -39.6205 -18.7378 -18.5972 -18.5321 -18.4932 -18.4026 -18.3982
     5.3533   8.3619   8.9531   9.6039  10.5943  10.8756  10.9641

          k = 0.0000 0.2914 0.0794 (  2648 PWs)   bands (ev):

   -39.6738 -39.6226 -18.7338 -18.5875 -18.5424 -18.4897 -18.4060 -18.4017
     5.4405   8.2283   8.9497   9.6359  10.5614  10.8190  10.9779

          k = 0.0000 0.2914 0.1588 (  2643 PWs)   bands (ev):

   -39.6679 -39.6286 -18.7205 -18.5834 -18.5481 -18.4800 -18.4159 -18.4142
     5.6965   7.8068   9.0553   9.7154  10.4059  10.7088  11.0299

          k = 0.0000 0.2914 0.2382 (  2639 PWs)   bands (ev):

   -39.6589 -39.6377 -18.6959 -18.6200 -18.5128 -18.4653 -18.4383 -18.4306
     6.1039   7.2269   9.2853   9.7541  10.2424  10.5305  11.1361

          k = 0.0000 0.2914-0.3176 (  2636 PWs)   bands (ev):

   -39.6483 -39.6483 -18.6609 -18.6609 -18.4728 -18.4728 -18.4480 -18.4480
     6.6310   6.6310   9.5664   9.5664  10.3226  10.3226  11.2969

          k = 0.0000 0.3886 0.0000 (  2648 PWs)   bands (ev):

   -39.6597 -39.6169 -18.6881 -18.6744 -18.6043 -18.5158 -18.4265 -18.4150
     6.2059   8.5102   8.6778   9.2702  10.6271  10.6281  10.7431

          k = 0.0000 0.3886 0.0794 (  2643 PWs)   bands (ev):

   -39.6581 -39.6185 -18.7166 -18.6406 -18.6097 -18.5120 -18.4262 -18.4189
     6.2732   8.3824   8.7367   9.3130  10.4703  10.7157  10.7949

          k = 0.0000 0.3886 0.1588 (  2641 PWs)   bands (ev):

   -39.6534 -39.6232 -18.7352 -18.6544 -18.5731 -18.5011 -18.4304 -18.4299
     6.4705   8.0565   8.8991   9.4042  10.3173  10.6634  10.9468

          k = 0.0000 0.3886 0.2382 (  2643 PWs)   bands (ev):

   -39.6465 -39.6301 -18.7355 -18.6889 -18.5219 -18.4849 -18.4466 -18.4463
     6.7826   7.6283   9.1316   9.4591  10.2270  10.4862  11.1878

          k = 0.0000 0.3886-0.3176 (  2644 PWs)   bands (ev):

   -39.6383 -39.6383 -18.7187 -18.7187 -18.4778 -18.4778 -18.4656 -18.4656
     7.1827   7.1827   9.3593   9.3593  10.2931  10.2931  11.4966

          k = 0.0000 0.4857 0.0000 (  2658 PWs)   bands (ev):

   -39.6462 -39.6158 -18.7312 -18.6559 -18.6420 -18.5321 -18.4570 -18.4245
     7.0614   8.3360   8.5030   9.0283  10.4583  10.5960  10.8498

          k = 0.0000 0.4857 0.0794 (  2650 PWs)   bands (ev):

   -39.6451 -39.6170 -18.7475 -18.6720 -18.6134 -18.5280 -18.4528 -18.4286
     7.0900   8.2457   8.6044   9.0555  10.4664  10.6610  10.8009

          k = 0.0000 0.4857 0.1588 (  2647 PWs)   bands (ev):

   -39.6418 -39.6203 -18.7688 -18.7044 -18.5636 -18.5164 -18.4480 -18.4403
     7.1797   8.0545   8.8068   9.1523  10.4559  10.6733  10.8524

          k = 0.0000 0.4857 0.2382 (  2649 PWs)   bands (ev):

   -39.6368 -39.6252 -18.7759 -18.7392 -18.5148 -18.4991 -18.4579 -18.4542
     7.3353   7.8061   9.0496   9.2675  10.3939  10.5229  11.1594

          k = 0.0000 0.4857-0.3176 (  2644 PWs)   bands (ev):

   -39.6310 -39.6310 -18.7652 -18.7652 -18.4785 -18.4785 -18.4766 -18.4766
     7.5518   7.5518   9.2455   9.2455  10.3996  10.3996  11.5621

          k = 0.0000-0.5828-0.0000 (  2642 PWs)   bands (ev):

   -39.6405 -39.6162 -18.7519 -18.6745 -18.6202 -18.5380 -18.4729 -18.4280
     7.5715   8.1047   8.4439   8.9159  10.3982  10.5448  10.9531

          k = 0.0000-0.5828 0.0794 (  2656 PWs)   bands (ev):

   -39.6396 -39.6171 -18.7648 -18.6891 -18.5987 -18.5338 -18.4667 -18.4322
     7.5426   8.0846   8.5670   8.9052  10.4594  10.6132  10.8780

          k = 0.0000-0.5828 0.1588 (  2642 PWs)   bands (ev):

   -39.6369 -39.6197 -18.7844 -18.7225 -18.5541 -18.5220 -18.4572 -18.4441
     7.5152   7.9942   8.8530   8.9459  10.5668  10.6889  10.8159

          k = 0.0000-0.5828 0.2382 (  2648 PWs)   bands (ev):

   -39.6330 -39.6237 -18.7922 -18.7575 -18.5094 -18.5043 -18.4621 -18.4581
     7.5529   7.8329   9.0865   9.1364  10.5011  10.5778  11.1416

          k = 0.0000-0.5828-0.3176 (  2652 PWs)   bands (ev):

   -39.6283 -39.6283 -18.7828 -18.7828 -18.4833 -18.4833 -18.4756 -18.4756
     7.6671   7.6671   9.2165   9.2165  10.4823  10.4823  11.5713

          k = 0.0841 0.1457 0.0000 (  2659 PWs)   bands (ev):

   -39.6943 -39.6265 -18.7891 -18.4992 -18.4731 -18.4319 -18.3908 -18.3729
     4.5098   7.8449   9.3847  10.1577  10.8983  11.1028  11.1693

          k = 0.0841 0.1457 0.0794 (  2657 PWs)   bands (ev):

   -39.6918 -39.6291 -18.7755 -18.4951 -18.4724 -18.4410 -18.3937 -18.3803
     4.6094   7.7016   9.3490  10.1730  10.9076  10.9208  10.9876

          k = 0.0841 0.1457 0.1588 (  2652 PWs)   bands (ev):

   -39.6845 -39.6365 -18.7366 -18.4880 -18.4833 -18.4525 -18.4019 -18.3978
     4.9017   7.2652   9.3752  10.2223  10.5992  10.8431  10.8926

          k = 0.0841 0.1457 0.2382 (  2652 PWs)   bands (ev):

   -39.6735 -39.6475 -18.6783 -18.5411 -18.4657 -18.4448 -18.4185 -18.4139
     5.3661   6.6339   9.5594  10.1887  10.3801  10.6895  10.8757

          k = 0.0841 0.1457-0.3176 (  2640 PWs)   bands (ev):

   -39.6605 -39.6605 -18.6093 -18.6093 -18.4458 -18.4458 -18.4264 -18.4264
     5.9648   5.9648   9.8579   9.8579  10.5117  10.5117  10.9344

          k = 0.0841 0.2428 0.0000 (  2659 PWs)   bands (ev):

   -39.6815 -39.6222 -18.7539 -18.5599 -18.5225 -18.4698 -18.4049 -18.3898
     5.0853   8.2472   9.0790   9.7307  10.6644  10.8600  11.1641

          k = 0.0841 0.2428 0.0794 (  2655 PWs)   bands (ev):

   -39.6793 -39.6244 -18.7457 -18.5533 -18.5269 -18.4736 -18.4084 -18.3934
     5.1773   8.1088   9.0596   9.7594  10.6707  10.7872  11.0829

          k = 0.0841 0.2428 0.1588 (  2645 PWs)   bands (ev):

   -39.6729 -39.6309 -18.7222 -18.5547 -18.5273 -18.4746 -18.4182 -18.4054
     5.4473   7.6730   9.1385   9.8379  10.4804  10.7133  11.0290

          k = 0.0841 0.2428 0.2382 (  2641 PWs)   bands (ev):

   -39.6633 -39.6405 -18.6857 -18.5935 -18.4996 -18.4670 -18.4330 -18.4251
     5.8772   7.0633   9.3615   9.8834  10.2606  10.5441  11.0837

          k = 0.0841 0.2428-0.3176 (  2644 PWs)   bands (ev):

   -39.6519 -39.6519 -18.6406 -18.6406 -18.4705 -18.4705 -18.4411 -18.4411
     6.4339   6.4339   9.6602   9.6602  10.3390  10.3391  11.1947

          k = 0.0841 0.3400 0.0000 (  2653 PWs)   bands (ev):

   -39.6659 -39.6180 -18.7076 -18.6354 -18.5823 -18.5050 -18.4200 -18.4149
     5.8677   8.5619   8.7967   9.3481  10.5636  10.5995  10.9157

          k = 0.0841 0.3400 0.0794 (  2647 PWs)   bands (ev):

   -39.6640 -39.6198 -18.7150 -18.6202 -18.5862 -18.5050 -18.4255 -18.4132
     5.9454   8.4297   8.8249   9.3875  10.4587  10.6824  10.8943

          k = 0.0841 0.3400 0.1588 (  2640 PWs)   bands (ev):

   -39.6589 -39.6250 -18.7208 -18.6267 -18.5637 -18.4997 -18.4373 -18.4171
     6.1732   8.0407   8.9702   9.4815  10.3090  10.6327  10.9642

          k = 0.0841 0.3400 0.2382 (  2647 PWs)   bands (ev):

   -39.6511 -39.6328 -18.7131 -18.6591 -18.5214 -18.4875 -18.4529 -18.4320
     6.5350   7.5273   9.2036   9.5567  10.1710  10.4292  11.1624

          k = 0.0841 0.3400-0.3176 (  2644 PWs)   bands (ev):

   -39.6420 -39.6420 -18.6910 -18.6910 -18.4885 -18.4885 -18.4536 -18.4536
     7.0017   7.0017   9.4497   9.4497  10.2200  10.2200  11.4099

          k = 0.0841 0.4371 0.0000 (  2651 PWs)   bands (ev):

   -39.6508 -39.6159 -18.7021 -18.6583 -18.6346 -18.5323 -18.4456 -18.4330
     6.7410   8.5210   8.5921   9.0910  10.4335  10.6746  10.7426

          k = 0.0841 0.4371 0.0794 (  2648 PWs)   bands (ev):

   -39.6494 -39.6172 -18.7243 -18.6558 -18.6170 -18.5294 -18.4465 -18.4326
     6.7923   8.3986   8.6810   9.1428  10.3846  10.6644  10.7768

          k = 0.0841 0.4371 0.1588 (  2650 PWs)   bands (ev):

   -39.6457 -39.6210 -18.7469 -18.6829 -18.5704 -18.5178 -18.4560 -18.4312
     6.9427   8.1494   8.8563   9.2597  10.2802  10.5615  10.9242

          k = 0.0841 0.4371 0.2382 (  2645 PWs)   bands (ev):

   -39.6400 -39.6267 -18.7530 -18.7157 -18.5299 -18.4970 -18.4705 -18.4385
     7.1815   7.8270   9.0926   9.3575  10.1898  10.3704  11.1828

          k = 0.0841 0.4371-0.3176 (  2660 PWs)   bands (ev):

   -39.6333 -39.6333 -18.7416 -18.7416 -18.5023 -18.5023 -18.4585 -18.4585
     7.4876   7.4876   9.3054   9.3054  10.2084  10.2085  11.5216

          k = 0.0841 0.5343 0.0000 (  2652 PWs)   bands (ev):

   -39.6406 -39.6161 -18.7407 -18.6648 -18.6207 -18.5472 -18.4725 -18.4405
     7.4978   8.2690   8.4863   8.9107  10.3766  10.5067  10.9473

          k = 0.0841 0.5343 0.0794 (  2642 PWs)   bands (ev):

   -39.6396 -39.6171 -18.7536 -18.6800 -18.6007 -18.5410 -18.4686 -18.4420
     7.4967   8.2204   8.5977   8.9276  10.3960  10.5180  10.9293

          k = 0.0841 0.5343 0.1588 (  2651 PWs)   bands (ev):

   -39.6370 -39.6197 -18.7732 -18.7132 -18.5657 -18.5205 -18.4711 -18.4416
     7.5176   8.0983   8.8312   9.0315  10.3969  10.4703  10.9923

          k = 0.0841 0.5343 0.2382 (  2647 PWs)   bands (ev):

   -39.6330 -39.6237 -18.7812 -18.7476 -18.5361 -18.4926 -18.4831 -18.4436
     7.5948   7.9190   9.0790   9.2176  10.2765  10.3698  11.2402

          k = 0.0841 0.5343-0.3176 (  2644 PWs)   bands (ev):

   -39.6283 -39.6283 -18.7723 -18.7723 -18.5108 -18.5108 -18.4589 -18.4589
     7.7356   7.7356   9.2596   9.2596  10.2499  10.2503  11.6048

          k = 0.1683 0.2914 0.0000 (  2660 PWs)   bands (ev):

   -39.6680 -39.6185 -18.7143 -18.6017 -18.5937 -18.4921 -18.4308 -18.4110
     5.7527   8.6049   8.8565   9.3463  10.5491  10.5520  11.0099

          k = 0.1683 0.2914 0.0794 (  2652 PWs)   bands (ev):

   -39.6662 -39.6204 -18.7162 -18.5983 -18.5869 -18.4981 -18.4342 -18.4099
     5.8340   8.4690   8.8703   9.3815  10.4995  10.6027  10.9509

          k = 0.1683 0.2914 0.1588 (  2642 PWs)   bands (ev):

   -39.6608 -39.6258 -18.7149 -18.6158 -18.5521 -18.5047 -18.4434 -18.4132
     6.0724   8.0491   9.0085   9.4789  10.3487  10.5917  10.9388

          k = 0.1683 0.2914 0.2382 (  2646 PWs)   bands (ev):

   -39.6528 -39.6338 -18.7024 -18.6457 -18.5138 -18.5011 -18.4539 -18.4277
     6.4517   7.4995   9.2428   9.5818  10.1617  10.3843  11.1195

          k = 0.1683 0.2914-0.3176 (  2650 PWs)   bands (ev):

   -39.6433 -39.6433 -18.6778 -18.6778 -18.4953 -18.4953 -18.4494 -18.4494
     6.9428   6.9428   9.4951   9.4951  10.1724  10.1724  11.3519

          k = 0.1683 0.3886 0.0000 (  2647 PWs)   bands (ev):

   -39.6533 -39.6160 -18.6671 -18.6638 -18.6310 -18.5281 -18.4553 -18.4396
     6.5767   8.6846   8.7550   9.0455  10.3331  10.6461  10.7631

          k = 0.1683 0.3886 0.0794 (  2652 PWs)   bands (ev):

   -39.6519 -39.6175 -18.6991 -18.6541 -18.6050 -18.5337 -18.4602 -18.4329
     6.6401   8.5688   8.8151   9.0933  10.2982  10.6671  10.7099

          k = 0.1683 0.3886 0.1588 (  2651 PWs)   bands (ev):

   -39.6478 -39.6215 -18.7220 -18.6698 -18.5624 -18.5347 -18.4698 -18.4260
     6.8257   8.2845   8.9657   9.2080  10.2022  10.4735  10.8410

          k = 0.1683 0.3886 0.2382 (  2648 PWs)   bands (ev):

   -39.6418 -39.6275 -18.7281 -18.6951 -18.5397 -18.5182 -18.4721 -18.4311
     7.1182   7.9003   9.1773   9.3401  10.0702  10.2197  11.0787

          k = 0.1683 0.3886-0.3176 (  2652 PWs)   bands (ev):

   -39.6347 -39.6347 -18.7177 -18.7177 -18.5241 -18.5241 -18.4504 -18.4504
     7.4907   7.4907   9.3552   9.3552  10.0381  10.0382  11.3982

          k = 0.1683 0.4857 0.0000 (  2638 PWs)   bands (ev):

   -39.6406 -39.6161 -18.7114 -18.6484 -18.6214 -18.5631 -18.4718 -18.4717
     7.4077   8.5733   8.5818   8.8889  10.2522  10.5054  10.9127

          k = 0.1683 0.4857 0.0794 (  2651 PWs)   bands (ev):

   -39.6397 -39.6170 -18.7236 -18.6677 -18.6004 -18.5573 -18.4824 -18.4563
     7.4406   8.4750   8.6767   8.9609  10.2269  10.4397  10.9284

          k = 0.1683 0.4857 0.1588 (  2651 PWs)   bands (ev):

   -39.6370 -39.6197 -18.7438 -18.6966 -18.5846 -18.5293 -18.4920 -18.4407
     7.5383   8.3205   8.8477   9.1284  10.1407  10.2593  11.0127

          k = 0.1683 0.4857 0.2382 (  2650 PWs)   bands (ev):

   -39.6330 -39.6236 -18.7538 -18.7265 -18.5679 -18.5265 -18.4751 -18.4364
     7.6959   8.1190   9.0907   9.3078  10.0055  10.0215  11.2024

          k = 0.1683 0.4857-0.3176 (  2656 PWs)   bands (ev):

   -39.6283 -39.6283 -18.7477 -18.7477 -18.5467 -18.5467 -18.4486 -18.4486
     7.8985   7.8985   9.3176   9.3176   9.9046   9.9046  11.4956

          k = 0.1683 0.5828 0.0000 (  2648 PWs)   bands (ev):

   -39.6350 -39.6171 -18.7287 -18.6528 -18.5982 -18.5781 -18.4900 -18.4778
     7.9049   8.3649   8.5479   8.7947  10.3124  10.3210  11.0451

          k = 0.1683 0.5828 0.0794 (  2643 PWs)   bands (ev):

   -39.6343 -39.6178 -18.7382 -18.6687 -18.6035 -18.5522 -18.4959 -18.4665
     7.8888   8.3545   8.6520   8.8228  10.2771  10.2865  11.0557

          k = 0.1683 0.5828 0.1588 (  2656 PWs)   bands (ev):

   -39.6323 -39.6197 -18.7556 -18.7029 -18.5965 -18.5105 -18.5103 -18.4484
     7.8838   8.2931   8.9064   8.9398  10.1530  10.1712  11.1301

          k = 0.1683 0.5828 0.2382 (  2649 PWs)   bands (ev):

   -39.6294 -39.6226 -18.7649 -18.7365 -18.5786 -18.5311 -18.4725 -18.4396
     7.9332   8.1729   9.1538   9.2117   9.9277   9.9948  11.3117

          k = 0.1683 0.5828-0.3176 (  2648 PWs)   bands (ev):

   -39.6260 -39.6260 -18.7587 -18.7587 -18.5552 -18.5552 -18.4475 -18.4475
     8.0382   8.0382   9.3533   9.3533   9.8135   9.8135  11.5901

          k = 0.2524 0.4371 0.0000 (  2640 PWs)   bands (ev):

   -39.6407 -39.6160 -18.6863 -18.6524 -18.6218 -18.5619 -18.4949 -18.4713
     7.3755   8.6361   8.7786   8.8256  10.1707  10.5185  10.8785

          k = 0.2524 0.4371 0.0794 (  2643 PWs)   bands (ev):

   -39.6397 -39.6170 -18.6886 -18.6851 -18.5843 -18.5738 -18.4977 -18.4589
     7.4217   8.5744   8.8172   8.9063  10.1559  10.4098  10.8870

          k = 0.2524 0.4371 0.1588 (  2646 PWs)   bands (ev):

   -39.6371 -39.6196 -18.7172 -18.6991 -18.5865 -18.5466 -18.4975 -18.4407
     7.5546   8.4405   8.9317   9.0749  10.0908  10.1560  10.9402

          k = 0.2524 0.4371 0.2382 (  2655 PWs)   bands (ev):

   -39.6331 -39.6236 -18.7334 -18.7176 -18.5820 -18.5477 -18.4719 -18.4344
     7.7575   8.2432   9.1108   9.2617   9.8859   9.9517  11.0994

          k = 0.2524 0.4371-0.3176 (  2660 PWs)   bands (ev):

   -39.6283 -39.6283 -18.7324 -18.7324 -18.5657 -18.5657 -18.4454 -18.4454
     8.0009   8.0009   9.2924   9.2924   9.8028   9.8028  11.3926

          k = 0.2524 0.5343 0.0000 (  2639 PWs)   bands (ev):

   -39.6310 -39.6184 -18.7032 -18.6399 -18.6004 -18.5812 -18.5198 -18.5040
     8.0656   8.6010   8.6282   8.7239  10.1476  10.2873  11.1097

          k = 0.2524 0.5343 0.0794 (  2642 PWs)   bands (ev):

   -39.6306 -39.6188 -18.7067 -18.6618 -18.6183 -18.5516 -18.5250 -18.4847
     8.0912   8.5669   8.6759   8.8112  10.1084  10.1887  11.1122

          k = 0.2524 0.5343 0.1588 (  2642 PWs)   bands (ev):

   -39.6292 -39.6202 -18.7210 -18.6924 -18.6292 -18.5492 -18.4982 -18.4570
     8.1628   8.5233   8.8099   9.0026   9.9355   9.9912  11.1447

          k = 0.2524 0.5343 0.2382 (  2657 PWs)   bands (ev):

   -39.6271 -39.6223 -18.7352 -18.7197 -18.6177 -18.5704 -18.4627 -18.4406
     8.2652   8.4636   9.0269   9.2520   9.6246   9.7857  11.2587

          k = 0.2524 0.5343-0.3176 (  2654 PWs)   bands (ev):

   -39.6247 -39.6247 -18.7355 -18.7355 -18.5952 -18.5952 -18.4422 -18.4422
     8.3742   8.3742   9.3071   9.3071   9.5276   9.5276  11.4945

          k = 0.3365 0.5828 0.0000 (  2616 PWs)   bands (ev):

   -39.6234 -39.6234 -18.6929 -18.6237 -18.6237 -18.5477 -18.5411 -18.5411
     8.5098   8.5098   8.6084   8.6611  10.1497  10.1497  11.2080

          k = 0.3365 0.5828 0.0794 (  2640 PWs)   bands (ev):

   -39.6234 -39.6234 -18.6876 -18.6486 -18.6486 -18.5534 -18.5161 -18.5161
     8.5558   8.5558   8.6271   8.6824  10.0706  10.0707  11.2051

          k = 0.3365 0.5828 0.1588 (  2667 PWs)   bands (ev):

   -39.6234 -39.6234 -18.6862 -18.6862 -18.6722 -18.5694 -18.4778 -18.4778
     8.6772   8.6872   8.6872   8.7323   9.8664   9.8664  11.2189

          k = 0.3365 0.5828 0.2382 (  2661 PWs)   bands (ev):

   -39.6234 -39.6234 -18.7133 -18.7133 -18.6487 -18.5932 -18.4500 -18.4500
     8.7382   8.7761   8.8754   8.8754   9.6141   9.6141  11.3045

          k = 0.3365 0.5828-0.3176 (  2652 PWs)   bands (ev):

   -39.6233 -39.6233 -18.7230 -18.7230 -18.6210 -18.6210 -18.4399 -18.4399
     8.7794   8.7794   9.0033   9.0033   9.4616   9.4616  11.5142

     the Fermi energy is     9.1736 ev

!    total energy              =    -306.87355604 Ry
     total all-electron energy =     -3050.014327 Ry
     estimated scf accuracy    <          8.0E-09 Ry
     smearing contrib. (-TS)   =      -0.00101320 Ry
     internal energy E=F+TS    =    -306.87254284 Ry

     The total energy is F=E-TS. E is the sum of the following terms:
     one-electron contribution =     -72.38241855 Ry
     hartree contribution      =      41.63130302 Ry
     xc contribution           =     -34.56875018 Ry
     ewald contribution        =    -127.79448458 Ry
     one-center paw contrib.   =    -113.75819255 Ry

     convergence has been achieved in  25 iterations

     Forces acting on atoms (cartesian axes, Ry/au):

     atom    1 type  1   force =     0.00000000   -0.00000000   -0.00000000
     atom    2 type  1   force =     0.00000000    0.00000000    0.00000000
     The non-local contrib.  to forces
     atom    1 type  1   force =    -0.00000000    0.00000000    0.00000000
     atom    2 type  1   force =     0.00000000    0.00000000    0.00000000
     The ionic contribution  to forces
     atom    1 type  1   force =     0.00000000   -0.00000000    0.00000000
     atom    2 type  1   force =    -0.00000000    0.00000000   -0.00000000
     The local contribution  to forces
     atom    1 type  1   force =    -0.00000000   -0.00000000    0.00000000
     atom    2 type  1   force =    -0.00000000    0.00000000    0.00000000
     The core correction contribution to forces
     atom    1 type  1   force =    -0.00000000   -0.00000000   -0.00000000
     atom    2 type  1   force =     0.00000000   -0.00000000    0.00000000
     The Hubbard contrib.    to forces
     atom    1 type  1   force =     0.00000000    0.00000000    0.00000000
     atom    2 type  1   force =     0.00000000    0.00000000    0.00000000
     The SCF correction term to forces
     atom    1 type  1   force =     0.00000000    0.00000000    0.00000000
     atom    2 type  1   force =    -0.00000000    0.00000000    0.00000000

     Total force =     0.000000     Total SCF correction =     0.000000


     Computing stress (Cartesian axis) and pressure

          total   stress  (Ry/bohr**3)                   (kbar)     P=      -47.32
  -0.00028219   0.00000000  -0.00000000          -41.51        0.00       -0.00
   0.00000000  -0.00028219   0.00000000            0.00      -41.51        0.00
   0.00000000  -0.00000000  -0.00040059            0.00       -0.00      -58.93

     Energy error            =      3.9E-03 Ry
     Gradient error          =      1.6E-27 Ry/Bohr
     Cell gradient error     =      5.9E+01 kbar

     number of scf cycles    =   2
     number of bfgs steps    =   1

     enthalpy           old  =    -306.8696430431 Ry
     enthalpy           new  =    -306.8735560386 Ry

     CASE: enthalpy          _new < enthalpy          _old

     new trust radius        =       0.0682607667 bohr
     new conv_thr            =            1.0E-10 Ry

     new unit-cell volume =    312.48419 a.u.^3 (    46.30538 Ang^3 )
     density =      3.19848 g/cm^3

CELL_PARAMETERS (alat=  6.25310370)
   0.977491804   0.000000000   0.000000000
  -0.488745902   0.846532735   0.000000000
  -0.000000000   0.000000000   1.544487087

ATOMIC_POSITIONS (crystal)
Sc            0.0000000000        0.0000000000       -0.0000000000
Sc            0.6666666667        0.3333333333        0.5000000000



     Writing config-only to output data dir sc_vcrelax.out/scandium.save/
     NEW-OLD atomic charge density approx. for the potential

     Check: negative core charge=   -0.000011
     extrapolated charge   20.97230, renormalised to   22.00000

     total cpu time spent up to now is      201.2 secs

     Self-consistent Calculation

     iteration #  1     ecut=    60.00 Ry     beta= 0.70
     Davidson diagonalization with overlap
     c_bands:  1 eigenvalues not converged
     c_bands:  2 eigenvalues not converged
     c_bands:  3 eigenvalues not converged
     c_bands:  1 eigenvalues not converged
     c_bands:  1 eigenvalues not converged
     c_bands:  2 eigenvalues not converged
     c_bands:  3 eigenvalues not converged
     c_bands:  3 eigenvalues not converged
     c_bands:  4 eigenvalues not converged
     c_bands:  2 eigenvalues not converged
     c_bands:  2 eigenvalues not converged
     c_bands:  2 eigenvalues not converged
     c_bands:  3 eigenvalues not converged
     c_bands:  1 eigenvalues not converged
     c_bands:  3 eigenvalues not converged
     c_bands:  3 eigenvalues not converged
     c_bands:  4 eigenvalues not converged
     c_bands:  1 eigenvalues not converged
     c_bands:  3 eigenvalues not converged
     c_bands:  4 eigenvalues not converged
     c_bands:  4 eigenvalues not converged
     c_bands:  2 eigenvalues not converged
     c_bands:  4 eigenvalues not converged
     c_bands:  3 eigenvalues not converged
     c_bands:  2 eigenvalues not converged
     c_bands:  4 eigenvalues not converged
     c_bands:  3 eigenvalues not converged
     c_bands:  4 eigenvalues not converged
     c_bands:  3 eigenvalues not converged
     c_bands:  3 eigenvalues not converged
     c_bands:  4 eigenvalues not converged
     c_bands:  2 eigenvalues not converged
     c_bands:  2 eigenvalues not converged
     c_bands:  1 eigenvalues not converged
     c_bands:  2 eigenvalues not converged
     c_bands:  4 eigenvalues not converged
     c_bands:  1 eigenvalues not converged
     c_bands:  2 eigenvalues not converged
     c_bands:  5 eigenvalues not converged
     c_bands:  3 eigenvalues not converged
     c_bands:  2 eigenvalues not converged
     c_bands:  3 eigenvalues not converged
     c_bands:  2 eigenvalues not converged
     c_bands:  3 eigenvalues not converged
     c_bands:  4 eigenvalues not converged
     c_bands:  2 eigenvalues not converged
     c_bands:  1 eigenvalues not converged
     c_bands:  3 eigenvalues not converged
     c_bands:  4 eigenvalues not converged
     c_bands:  4 eigenvalues not converged
     c_bands:  3 eigenvalues not converged
     c_bands:  3 eigenvalues not converged
     c_bands:  3 eigenvalues not converged
     c_bands:  3 eigenvalues not converged
     c_bands:  5 eigenvalues not converged
     c_bands:  5 eigenvalues not converged
     c_bands:  2 eigenvalues not converged
     c_bands:  1 eigenvalues not converged
     c_bands:  3 eigenvalues not converged
     c_bands:  4 eigenvalues not converged
     c_bands:  2 eigenvalues not converged
     c_bands:  3 eigenvalues not converged
     c_bands:  4 eigenvalues not converged
     c_bands:  4 eigenvalues not converged
     c_bands:  4 eigenvalues not converged
     c_bands:  1 eigenvalues not converged
     c_bands:  4 eigenvalues not converged
     c_bands:  5 eigenvalues not converged
     c_bands:  5 eigenvalues not converged
     c_bands:  5 eigenvalues not converged
     c_bands:  3 eigenvalues not converged
     c_bands:  2 eigenvalues not converged
     c_bands:  2 eigenvalues not converged
     c_bands:  4 eigenvalues not converged
     ethr =  1.00E-06,  avg # of iterations = 21.6

     total cpu time spent up to now is      241.0 secs

     total energy              =    -306.57124011 Ry
     estimated scf accuracy    <       0.22379081 Ry

     iteration #  2     ecut=    60.00 Ry     beta= 0.70
     Davidson diagonalization with overlap
     ethr =  1.02E-03,  avg # of iterations =  7.4

     total cpu time spent up to now is      262.7 secs

     total energy              =    -306.88573879 Ry
     estimated scf accuracy    <       0.36084629 Ry

     iteration #  3     ecut=    60.00 Ry     beta= 0.70
     Davidson diagonalization with overlap
     ethr =  1.02E-03,  avg # of iterations =  1.2

     total cpu time spent up to now is      324.6 secs

     total energy              =    -306.87512840 Ry
     estimated scf accuracy    <       0.10705141 Ry

     iteration #  4     ecut=    60.00 Ry     beta= 0.70
     Davidson diagonalization with overlap
     ethr =  4.87E-04,  avg # of iterations =  2.2

     total cpu time spent up to now is      348.1 secs

     total energy              =    -306.87328609 Ry
     estimated scf accuracy    <       0.04732084 Ry

     iteration #  5     ecut=    60.00 Ry     beta= 0.70
     Davidson diagonalization with overlap
     ethr =  2.15E-04,  avg # of iterations =  2.3

     total cpu time spent up to now is      354.4 secs

     total energy              =    -306.87782167 Ry
     estimated scf accuracy    <       0.02383295 Ry

     iteration #  6     ecut=    60.00 Ry     beta= 0.70
     Davidson diagonalization with overlap
     ethr =  1.08E-04,  avg # of iterations =  2.6

     total cpu time spent up to now is      358.1 secs

     total energy              =    -306.88485557 Ry
     estimated scf accuracy    <       0.02245228 Ry

     iteration #  7     ecut=    60.00 Ry     beta= 0.70
     Davidson diagonalization with overlap
     ethr =  1.02E-04,  avg # of iterations =  1.3

     total cpu time spent up to now is      361.3 secs

     total energy              =    -306.87419721 Ry
     estimated scf accuracy    <       0.02952969 Ry

     iteration #  8     ecut=    60.00 Ry     beta= 0.70
     Davidson diagonalization with overlap
     ethr =  1.02E-04,  avg # of iterations =  1.9

     total cpu time spent up to now is      362.9 secs

     total energy              =    -306.86671453 Ry
     estimated scf accuracy    <       0.01065319 Ry

     iteration #  9     ecut=    60.00 Ry     beta= 0.70
     Davidson diagonalization with overlap
     ethr =  4.84E-05,  avg # of iterations =  8.4

     total cpu time spent up to now is      366.3 secs

     total energy              =    -306.88212668 Ry
     estimated scf accuracy    <       0.01366376 Ry

     iteration # 10     ecut=    60.00 Ry     beta= 0.70
     Davidson diagonalization with overlap
     ethr =  4.84E-05,  avg # of iterations =  1.8

     total cpu time spent up to now is      367.7 secs

     total energy              =    -306.87826138 Ry
     estimated scf accuracy    <       0.01284731 Ry

     iteration # 11     ecut=    60.00 Ry     beta= 0.70
     Davidson diagonalization with overlap
     ethr =  4.84E-05,  avg # of iterations =  1.0

     total cpu time spent up to now is      369.0 secs

     total energy              =    -306.87650133 Ry
     estimated scf accuracy    <       0.00583756 Ry

     iteration # 12     ecut=    60.00 Ry     beta= 0.70
     Davidson diagonalization with overlap
     ethr =  2.65E-05,  avg # of iterations =  2.6

     total cpu time spent up to now is      370.8 secs

     total energy              =    -306.87640822 Ry
     estimated scf accuracy    <       0.00179839 Ry

     iteration # 13     ecut=    60.00 Ry     beta= 0.70
     Davidson diagonalization with overlap
     ethr =  8.17E-06,  avg # of iterations =  5.3

     total cpu time spent up to now is      372.6 secs

     total energy              =    -306.87707455 Ry
     estimated scf accuracy    <       0.00019654 Ry

     iteration # 14     ecut=    60.00 Ry     beta= 0.70
     Davidson diagonalization with overlap
     ethr =  8.93E-07,  avg # of iterations =  6.4

     total cpu time spent up to now is      375.0 secs

[...]

          k = 0.0000 0.3959 0.1663 (  2373 PWs)   bands (ev):

   -38.4423 -38.3949 -17.6092 -17.4864 -17.3761 -17.2987 -17.1929 -17.1856
     7.4252   9.0440   9.8110  10.3783  11.4452  11.8639  11.9518

          k = 0.0000 0.3959 0.2494 (  2358 PWs)   bands (ev):

   -38.4314 -38.4058 -17.6087 -17.5386 -17.3055 -17.2746 -17.2173 -17.2040
     7.7478   8.6171  10.0780  10.4550  11.3367  11.6464  12.2273

          k = 0.0000 0.3959-0.3325 (  2374 PWs)   bands (ev):

   -38.4186 -38.4186 -17.5833 -17.5833 -17.2461 -17.2461 -17.2450 -17.2450
     8.1604   8.1604  10.3465  10.3465  11.4115  11.4115  12.5821

          k = 0.0000 0.4949 0.0000 (  2353 PWs)   bands (ev):

   -38.4330 -38.3854 -17.5804 -17.4891 -17.4691 -17.3409 -17.2319 -17.1811
     8.0064   9.1850   9.4307  10.0006  11.5582  11.6519  12.0939

          k = 0.0000 0.4949 0.0831 (  2356 PWs)   bands (ev):

   -38.4312 -38.3872 -17.6102 -17.4973 -17.4398 -17.3349 -17.2226 -17.1873
     8.0264   9.1294   9.5230  10.0259  11.6327  11.6599  12.0348

          k = 0.0000 0.4949 0.1663 (  2362 PWs)   bands (ev):

   -38.4261 -38.3924 -17.6442 -17.5474 -17.3668 -17.3178 -17.2099 -17.2049
     8.0985   8.9662   9.7407  10.1433  11.6373  11.8529  11.8851

          k = 0.0000 0.4949 0.2494 (  2366 PWs)   bands (ev):

   -38.4183 -38.4001 -17.6552 -17.6005 -17.2968 -17.2921 -17.2311 -17.2142
     8.2415   8.7182  10.0212  10.2965  11.5433  11.7139  12.2070

          k = 0.0000 0.4949-0.3325 (  2356 PWs)   bands (ev):

   -38.4092 -38.4092 -17.6396 -17.6396 -17.2616 -17.2616 -17.2434 -17.2434
     8.4571   8.4571  10.2649  10.2649  11.5563  11.5563  12.6733

          k =-0.0000-0.5939-0.0000 (  2348 PWs)   bands (ev):

   -38.4248 -38.3868 -17.6058 -17.4914 -17.4595 -17.3483 -17.2547 -17.1850
     8.4988   8.9638   9.3471   9.9011  11.5016  11.6028  12.2135

          k =-0.0000-0.5939 0.0831 (  2348 PWs)   bands (ev):

   -38.4234 -38.3882 -17.6291 -17.5159 -17.4237 -17.3421 -17.2418 -17.1913
     8.4462   8.9575   9.5085   9.8733  11.5808  11.6747  12.1204

          k =-0.0000-0.5939 0.1663 (  2354 PWs)   bands (ev):

   -38.4192 -38.3923 -17.6615 -17.5690 -17.3557 -17.3247 -17.2224 -17.2093
     8.3885   8.8874   9.8623   9.8943  11.7991  11.8139  11.8864

          k =-0.0000-0.5939 0.2494 (  2346 PWs)   bands (ev):

   -38.4130 -38.3985 -17.6741 -17.6226 -17.2985 -17.2902 -17.2360 -17.2194
     8.4160   8.7210  10.0594  10.1917  11.6612  11.8040  12.1909

          k =-0.0000-0.5939-0.3325 (  2340 PWs)   bands (ev):

   -38.4057 -38.4057 -17.6605 -17.6605 -17.2673 -17.2673 -17.2422 -17.2422
     8.5384   8.5384  10.2464  10.2464  11.6659  11.6659  12.6908

          k = 0.0857 0.1485 0.0000 (  2375 PWs)   bands (ev):

   -38.5000 -38.3937 -17.6877 -17.2957 -17.2643 -17.1984 -17.1448 -17.1095
     5.3914   8.7659  10.6486  11.1608  12.0450  12.1963  12.2157

          k = 0.0857 0.1485 0.0831 (  2377 PWs)   bands (ev):

   -38.4960 -38.3978 -17.6692 -17.2895 -17.2621 -17.2125 -17.1492 -17.1197
     5.5024   8.6675  10.5422  11.1726  12.0234  12.0520  12.0840

          k = 0.0857 0.1485 0.1663 (  2378 PWs)   bands (ev):

   -38.4846 -38.4095 -17.6163 -17.2766 -17.2718 -17.2352 -17.1614 -17.1448
     5.8268   8.3067  10.4506  11.2124  11.7490  11.8955  12.0236

          k = 0.0857 0.1485 0.2494 (  2382 PWs)   bands (ev):

   -38.4675 -38.4268 -17.5368 -17.3490 -17.2451 -17.2237 -17.1795 -17.1762
     6.3380   7.6910  10.5847  11.1936  11.5010  11.7949  11.9116

          k = 0.0857 0.1485-0.3325 (  2368 PWs)   bands (ev):

   -38.4472 -38.4472 -17.4425 -17.4425 -17.2157 -17.2157 -17.1976 -17.1976
     6.9874   6.9874  10.8872  10.8872  11.6012  11.6014  11.9681

          k = 0.0857 0.2474 0.0000 (  2377 PWs)   bands (ev):

   -38.4825 -38.3894 -17.6405 -17.3697 -17.3198 -17.2512 -17.1607 -17.1346
     5.9957   9.1631  10.2268  10.6840  11.8233  11.8998  12.2388

          k = 0.0857 0.2474 0.0831 (  2377 PWs)   bands (ev):

   -38.4790 -38.3930 -17.6298 -17.3598 -17.3239 -17.2599 -17.1659 -17.1381
     6.0969   9.0845  10.1360  10.7150  11.7893  11.9108  12.1336

          k = 0.0857 0.2474 0.1663 (  2374 PWs)   bands (ev):

   -38.4689 -38.4031 -17.5984 -17.3626 -17.3217 -17.2641 -17.1801 -17.1528
     6.3930   8.7311  10.1142  10.7988  11.5857  11.8904  12.0508

          k = 0.0857 0.2474 0.2494 (  2371 PWs)   bands (ev):

   -38.4539 -38.4183 -17.5488 -17.4192 -17.2813 -17.2506 -17.2006 -17.1815
     6.8614   8.1251  10.3201  10.8511  11.3672  11.6808  12.1187

          k = 0.0857 0.2474-0.3325 (  2360 PWs)   bands (ev):

   -38.4361 -38.4361 -17.4861 -17.4861 -17.2431 -17.2431 -17.2121 -17.2121
     7.4614   7.4614  10.6354  10.6354  11.4423  11.4424  12.2481

          k = 0.0857 0.3464 0.0000 (  2373 PWs)   bands (ev):

   -38.4607 -38.3857 -17.5781 -17.4624 -17.3862 -17.3013 -17.1776 -17.1713
     6.8078   9.4505   9.8337  10.2788  11.6446  11.7542  11.9995

          k = 0.0857 0.3464 0.0831 (  2368 PWs)   bands (ev):

   -38.4579 -38.3886 -17.5873 -17.4425 -17.3921 -17.3031 -17.1853 -17.1668
     6.8908   9.4026   9.7834  10.3258  11.5579  11.8331  11.9609

          k = 0.0857 0.3464 0.1663 (  2366 PWs)   bands (ev):

   -38.4498 -38.3968 -17.5943 -17.4530 -17.3636 -17.2960 -17.2021 -17.1686
     7.1337   9.0752   9.8837  10.4356  11.4045  11.8084  11.9970

          k = 0.0857 0.3464 0.2494 (  2368 PWs)   bands (ev):

   -38.4377 -38.4090 -17.5824 -17.5021 -17.3074 -17.2742 -17.2246 -17.1877
     7.5176   8.5569  10.1421  10.5300  11.2585  11.5626  12.2174

          k = 0.0857 0.3464-0.3325 (  2362 PWs)   bands (ev):

   -38.4233 -38.4233 -17.5497 -17.5497 -17.2680 -17.2680 -17.2215 -17.2215
     8.0094   8.0094  10.4208  10.4208  11.3152  11.3152  12.4940

          k = 0.0857 0.4454 0.0000 (  2357 PWs)   bands (ev):

   -38.4395 -38.3849 -17.5448 -17.5114 -17.4454 -17.3386 -17.2157 -17.1920
     7.6952   9.3786   9.5423  10.0397  11.4916  11.7639  11.9686

          k = 0.0857 0.4454 0.0831 (  2359 PWs)   bands (ev):

   -38.4374 -38.3869 -17.5854 -17.4853 -17.4364 -17.3352 -17.2127 -17.1927
     7.7445   9.3187   9.5829  10.0999  11.4819  11.7354  11.9744

          k = 0.0857 0.4454 0.1663 (  2365 PWs)   bands (ev):

   -38.4315 -38.3929 -17.6195 -17.5223 -17.3761 -17.3167 -17.2243 -17.1882
     7.8907   9.0971   9.7660  10.2435  11.3971  11.6900  12.0230

          k = 0.0857 0.4454 0.2494 (  2360 PWs)   bands (ev):

   -38.4227 -38.4017 -17.6284 -17.5722 -17.3247 -17.2800 -17.2455 -17.1954
     8.1265   8.7766  10.0480  10.3730  11.2913  11.4984  12.2681

          k = 0.0857 0.4454-0.3325 (  2360 PWs)   bands (ev):

   -38.4122 -38.4122 -17.6111 -17.6111 -17.2884 -17.2884 -17.2234 -17.2234
     8.4338   8.4338  10.3120  10.3120  11.3101  11.3101  12.6421

          k = 0.0857 0.5444 0.0000 (  2355 PWs)   bands (ev):

   -38.4249 -38.3867 -17.5924 -17.4802 -17.4601 -17.3587 -17.2541 -17.2006
     8.4358   9.1301   9.3886   9.8828  11.4457  11.5977  12.2006

          k = 0.0857 0.5444 0.0831 (  2353 PWs)   bands (ev):

   -38.4234 -38.3882 -17.6156 -17.5062 -17.4267 -17.3492 -17.2441 -17.2036
     8.4178   9.1000   9.5214   9.8909  11.4811  11.6190  12.1530

          k = 0.0857 0.5444 0.1663 (  2355 PWs)   bands (ev):

   -38.4193 -38.3923 -17.6478 -17.5586 -17.3762 -17.3160 -17.2428 -17.2025
     8.4119   9.0005   9.7855  10.0143  11.4924  11.6344  12.1296

          k = 0.0857 0.5444 0.2494 (  2350 PWs)   bands (ev):

   -38.4131 -38.3985 -17.6608 -17.6112 -17.3362 -17.2720 -17.2598 -17.2021
     8.4762   8.8179  10.0576  10.2603  11.3670  11.5469  12.3505

          k = 0.0857 0.5444-0.3325 (  2360 PWs)   bands (ev):

   -38.4058 -38.4058 -17.6480 -17.6480 -17.3004 -17.3004 -17.2225 -17.2225
     8.6213   8.6213  10.2907  10.2907  11.3759  11.3759  12.7525

          k = 0.1714 0.2969 0.0000 (  2379 PWs)   bands (ev):

   -38.4638 -38.3861 -17.5873 -17.4181 -17.4090 -17.2794 -17.1914 -17.1656
     6.6909   9.5081   9.9116  10.2652  11.5766  11.7284  12.1035

          k = 0.1714 0.2969 0.0831 (  2365 PWs)   bands (ev):

   -38.4608 -38.3891 -17.5899 -17.4149 -17.3973 -17.2906 -17.1966 -17.1616
     6.7786   9.4643   9.8387  10.3057  11.5427  11.7833  12.0244

          k = 0.1714 0.2969 0.1663 (  2368 PWs)   bands (ev):

   -38.4525 -38.3975 -17.5879 -17.4403 -17.3483 -17.3018 -17.2109 -17.1626
     7.0352   9.1088   9.9222  10.4179  11.4173  11.7676  11.9851

          k = 0.1714 0.2969 0.2494 (  2355 PWs)   bands (ev):

   -38.4399 -38.4101 -17.5697 -17.4858 -17.2950 -17.2940 -17.2270 -17.1808
     7.4414   8.5479  10.1781  10.5409  11.2367  11.5041  12.1883

          k = 0.1714 0.2969-0.3325 (  2362 PWs)   bands (ev):

   -38.4250 -38.4250 -17.5337 -17.5337 -17.2787 -17.2787 -17.2141 -17.2141
     7.9632   7.9632  10.4574  10.4574  11.2551  11.2551  12.4395

          k = 0.1714 0.3959 0.0000 (  2353 PWs)   bands (ev):

   -38.4431 -38.3847 -17.5234 -17.4970 -17.4499 -17.3255 -17.2201 -17.2071
     7.5375   9.6365   9.6504   9.9575  11.3663  11.8546  11.8680

          k = 0.1714 0.3959 0.0831 (  2364 PWs)   bands (ev):

   -38.4409 -38.3869 -17.5601 -17.4860 -17.4187 -17.3366 -17.2276 -17.1940
     7.6030   9.5431   9.7017  10.0170  11.3482  11.7736  11.8858

          k = 0.1714 0.3959 0.1663 (  2364 PWs)   bands (ev):

   -38.4346 -38.3933 -17.5915 -17.5085 -17.3651 -17.3352 -17.2425 -17.1797
     7.7945   9.2716   9.8769  10.1558  11.2706  11.5741  11.9712

          k = 0.1714 0.3959 0.2494 (  2364 PWs)   bands (ev):

   -38.4251 -38.4027 -17.5992 -17.5479 -17.3417 -17.3035 -17.2455 -17.1841
     8.0952   8.8908  10.1289  10.3176  11.1342  11.2980  12.1918

          k = 0.1714 0.3959-0.3325 (  2372 PWs)   bands (ev):

   -38.4139 -38.4139 -17.5828 -17.5828 -17.3173 -17.3173 -17.2109 -17.2109
     8.4761   8.4761  10.3421  10.3421  11.0930  11.0930  12.5281

          k = 0.1714 0.4949 0.0000 (  2350 PWs)   bands (ev):

   -38.4251 -38.3865 -17.5572 -17.4652 -17.4612 -17.3727 -17.2530 -17.2391
     8.3677   9.4431   9.4808   9.8267  11.2962  11.6191  12.1511

          k = 0.1714 0.4949 0.0831 (  2353 PWs)   bands (ev):

   -38.4236 -38.3880 -17.5790 -17.4999 -17.4216 -17.3658 -17.2565 -17.2249
     8.3945   9.3809   9.5601   9.9065  11.2895  11.5417  12.1466

          k = 0.1714 0.4949 0.1663 (  2349 PWs)   bands (ev):

   -38.4194 -38.3922 -17.6121 -17.5418 -17.4030 -17.3201 -17.2696 -17.1996
     8.4789   9.2414   9.7596  10.1070  11.2254  11.3463  12.1856

          k = 0.1714 0.4949 0.2494 (  2353 PWs)   bands (ev):

   -38.4131 -38.3984 -17.6278 -17.5871 -17.3786 -17.3156 -17.2450 -17.1906
     8.6247   9.0428  10.0549  10.3371  11.0496  11.1114  12.3540

          k = 0.1714 0.4949-0.3325 (  2352 PWs)   bands (ev):

   -38.4058 -38.4058 -17.6189 -17.6189 -17.3466 -17.3466 -17.2066 -17.2066
     8.8227   8.8227  10.3465  10.3465  10.9517  10.9517  12.6633

          k = 0.1714 0.5939 0.0000 (  2360 PWs)   bands (ev):

   -38.4168 -38.3889 -17.5789 -17.4667 -17.4293 -17.3947 -17.2789 -17.2458
     8.8397   9.2568   9.4222   9.7432  11.3203  11.4798  12.3005

          k = 0.1714 0.5939 0.0831 (  2358 PWs)   bands (ev):

   -38.4157 -38.3899 -17.5957 -17.4939 -17.4337 -17.3574 -17.2762 -17.2365
     8.8020   9.2598   9.5622   9.7611  11.3012  11.4404  12.2874

          k = 0.1714 0.5939 0.1663 (  2348 PWs)   bands (ev):

   -38.4127 -38.3929 -17.6248 -17.5484 -17.4204 -17.2959 -17.2920 -17.2099
     8.7725   9.2129   9.8749   9.8834  11.1924  11.3228  12.3153

          k = 0.1714 0.5939 0.2494 (  2341 PWs)   bands (ev):

   -38.4081 -38.3974 -17.6404 -17.5994 -17.3925 -17.3218 -17.2406 -17.1948
     8.8157   9.0829  10.1239  10.2583  10.9575  11.1181  12.4788

          k = 0.1714 0.5939-0.3325 (  2348 PWs)   bands (ev):

   -38.4028 -38.4028 -17.6321 -17.6321 -17.3575 -17.3575 -17.2048 -17.2048
     8.9306   8.9306  10.3973  10.3973  10.8663  10.8663  12.7774

          k = 0.2571 0.4454 0.0000 (  2363 PWs)   bands (ev):

   -38.4252 -38.3865 -17.5274 -17.4760 -17.4618 -17.3652 -17.2670 -17.2525
     8.3462   9.5326   9.6745   9.7228  11.2129  11.6333  12.1099

          k = 0.2571 0.4454 0.0831 (  2348 PWs)   bands (ev):

   -38.4237 -38.3879 -17.5345 -17.5302 -17.3955 -17.3864 -17.2721 -17.2303
     8.3920   9.4716   9.7192   9.8252  11.2070  11.5085  12.1079

          k = 0.2571 0.4454 0.1663 (  2358 PWs)   bands (ev):

   -38.4195 -38.3921 -17.5815 -17.5466 -17.4066 -17.3374 -17.2761 -17.1994
     8.5228   9.3532   9.8537  10.0351  11.1557  11.2205  12.1300

          k = 0.2571 0.4454 0.2494 (  2345 PWs)   bands (ev):

   -38.4132 -38.3984 -17.6042 -17.5772 -17.3970 -17.3409 -17.2393 -17.1873
     8.7204   9.1783  10.0700  10.2710  10.9098  11.0106  12.2638

          k = 0.2571 0.4454-0.3325 (  2346 PWs)   bands (ev):

   -38.4058 -38.4058 -17.6011 -17.6011 -17.3700 -17.3700 -17.2015 -17.2015
     8.9534   8.9534  10.3037  10.3037  10.8244  10.8244  12.5643

          k = 0.2571 0.5444 0.0000 (  2363 PWs)   bands (ev):

   -38.4111 -38.3912 -17.5506 -17.4581 -17.4134 -17.4061 -17.2987 -17.2960
     9.0165   9.4783   9.5085   9.6407  11.2047  11.4073  12.3659

          k = 0.2571 0.5444 0.0831 (  2364 PWs)   bands (ev):

   -38.4103 -38.3919 -17.5562 -17.4972 -17.4442 -17.3534 -17.3065 -17.2647
     9.0359   9.4602   9.5664   9.7293  11.1713  11.2981  12.3558

          k = 0.2571 0.5444 0.1663 (  2355 PWs)   bands (ev):

   -38.4081 -38.3941 -17.5815 -17.5413 -17.4613 -17.3378 -17.2770 -17.2211
     9.0949   9.4328   9.7295   9.9480  11.0224  11.0591  12.3602

          k = 0.2571 0.5444 0.2494 (  2349 PWs)   bands (ev):

   -38.4049 -38.3973 -17.6048 -17.5823 -17.4412 -17.3687 -17.2255 -17.1951
     9.1877   9.3804   9.9903  10.2404  10.6782  10.8464  12.4544

          k = 0.2571 0.5444-0.3325 (  2338 PWs)   bands (ev):

   -38.4011 -38.4011 -17.6060 -17.6060 -17.4062 -17.4062 -17.1962 -17.1962
     9.2931   9.2931  10.3172  10.3172  10.5606  10.5606  12.6983

          k = 0.3429 0.5939 0.0000 (  2358 PWs)   bands (ev):

   -38.3994 -38.3994 -17.5422 -17.4398 -17.4398 -17.3506 -17.3506 -17.3271
     9.4349   9.4349   9.4870   9.5350  11.2445  11.2445  12.4769

          k = 0.3429 0.5939 0.0831 (  2367 PWs)   bands (ev):

   -38.3994 -38.3994 -17.5342 -17.4819 -17.4819 -17.3355 -17.3079 -17.3079
     9.4860   9.4860   9.5186   9.5561  11.1606  11.1606  12.4644

          k = 0.3429 0.5939 0.1663 (  2349 PWs)   bands (ev):

   -38.3994 -38.3994 -17.5392 -17.5392 -17.5112 -17.3592 -17.2490 -17.2490
     9.5963   9.6110   9.6304   9.6304  10.9454  10.9454  12.4552

          k = 0.3429 0.5939 0.2494 (  2334 PWs)   bands (ev):

   -38.3993 -38.3993 -17.5791 -17.5791 -17.4767 -17.3943 -17.2075 -17.2075
     9.6734   9.6745   9.8320   9.8320  10.6815  10.6815  12.5207

          k = 0.3429 0.5939-0.3325 (  2340 PWs)   bands (ev):

   -38.3993 -38.3993 -17.5933 -17.5933 -17.4358 -17.4358 -17.1927 -17.1927
     9.7038   9.7038   9.9618   9.9618  10.5279  10.5279  12.7339

     the Fermi energy is    10.1550 ev

!    total energy              =    -306.87655328 Ry
     total all-electron energy =     -3050.017324 Ry
     estimated scf accuracy    <          9.4E-11 Ry
     smearing contrib. (-TS)   =      -0.00079625 Ry
     internal energy E=F+TS    =    -306.87575703 Ry

     The total energy is F=E-TS. E is the sum of the following terms:
     one-electron contribution =     -67.02585483 Ry
     hartree contribution      =      39.94340351 Ry
     xc contribution           =     -34.68383063 Ry
     ewald contribution        =    -131.35171449 Ry
     one-center paw contrib.   =    -113.75776059 Ry

     convergence has been achieved in  27 iterations

     Forces acting on atoms (cartesian axes, Ry/au):

     atom    1 type  1   force =     0.00000000   -0.00000000   -0.00000000
     atom    2 type  1   force =    -0.00000000    0.00000000    0.00000000
     The non-local contrib.  to forces
     atom    1 type  1   force =     0.00000000   -0.00000000   -0.00000000
     atom    2 type  1   force =    -0.00000000    0.00000000    0.00000000
     The ionic contribution  to forces
     atom    1 type  1   force =     0.00000000   -0.00000000   -0.00000000
     atom    2 type  1   force =    -0.00000000    0.00000000    0.00000000
     The local contribution  to forces
     atom    1 type  1   force =     0.00000000    0.00000000    0.00000000
     atom    2 type  1   force =    -0.00000000    0.00000000    0.00000000
     The core correction contribution to forces
     atom    1 type  1   force =    -0.00000000   -0.00000000   -0.00000000
     atom    2 type  1   force =     0.00000000   -0.00000000   -0.00000000
     The Hubbard contrib.    to forces
     atom    1 type  1   force =     0.00000000    0.00000000    0.00000000
     atom    2 type  1   force =     0.00000000    0.00000000    0.00000000
     The SCF correction term to forces
     atom    1 type  1   force =     0.00000000   -0.00000000   -0.00000000
     atom    2 type  1   force =    -0.00000000    0.00000000    0.00000000

     Total force =     0.000000     Total SCF correction =     0.000000


     Computing stress (Cartesian axis) and pressure

          total   stress  (Ry/bohr**3)                   (kbar)     P=       -2.04
  -0.00001208   0.00000000  -0.00000000           -1.78        0.00       -0.00
  -0.00000000  -0.00001208  -0.00000000           -0.00       -1.78       -0.00
   0.00000000  -0.00000000  -0.00001746            0.00       -0.00       -2.57


     Writing all to output data dir sc_vcrelax.out/scandium.save/

     init_run     :      1.50s CPU      1.67s WALL (       2 calls)
     electrons    :    367.15s CPU   2265.01s WALL (      10 calls)
     update_pot   :      1.83s CPU      2.11s WALL (       8 calls)
     forces       :      2.09s CPU      2.11s WALL (      10 calls)
     stress       :      7.35s CPU      7.36s WALL (      10 calls)

     Called by init_run:
     wfcinit      :      0.92s CPU      0.97s WALL (       2 calls)
     potinit      :      0.15s CPU      0.27s WALL (       2 calls)
     hinit0       :      0.38s CPU      0.38s WALL (       2 calls)

     Called by electrons:
     c_bands      :    319.48s CPU   2182.10s WALL (     227 calls)
     sum_band     :     37.70s CPU     39.06s WALL (     227 calls)
     v_of_rho     :      0.28s CPU      0.29s WALL (     234 calls)
     newd         :      2.58s CPU      2.59s WALL (     234 calls)
     PAW_pot      :      7.19s CPU      7.20s WALL (     242 calls)
     mix_rho      :      0.24s CPU      0.25s WALL (     227 calls)

     Called by c_bands:
     init_us_2    :      3.67s CPU      4.09s WALL (   45980 calls)
     init_us_2:cp :      3.54s CPU      4.00s WALL (   45980 calls)
     cegterg      :    310.24s CPU    322.30s WALL (   21694 calls)

     Called by *egterg:
     cdiaghg      :     38.69s CPU     39.92s WALL (  136660 calls)
     h_psi        :    213.77s CPU    223.16s WALL (  138024 calls)
     s_psi        :     10.52s CPU     10.90s WALL (  138024 calls)
     g_psi        :      0.93s CPU      0.96s WALL (  116140 calls)

     Called by h_psi:
     h_psi:calbec :     14.81s CPU     15.37s WALL (  138024 calls)
     vloc_psi     :    187.27s CPU    195.67s WALL (  138024 calls)
     add_vuspsi   :     10.56s CPU     10.96s WALL (  138024 calls)

     General routines
     calbec       :     19.57s CPU     20.36s WALL (  165099 calls)
     fft          :      0.44s CPU      0.44s WALL (    1475 calls)
     ffts         :      0.06s CPU      0.06s WALL (     461 calls)
     fftw         :    194.73s CPU    203.15s WALL ( 2551751 calls)
     interpolate  :      0.11s CPU      0.11s WALL (     234 calls)

     Parallel routines

     PWSCF        :   6m20.99s CPU  40m 7.22s WALL


   This run was terminated on:  14:48:38  21Jul2023            

=------------------------------------------------------------------------------=
   JOB DONE.
=------------------------------------------------------------------------------=
