
     Program PWSCF v.7.2 starts on 26Jul2023 at 16:41:37 

     This program is part of the open-source Quantum ESPRESSO suite
     for quantum simulation of materials; please cite
         "P. Giannozzi et al., J. Phys.:Condens. Matter 21 395502 (2009);
         "P. Giannozzi et al., J. Phys.:Condens. Matter 29 465901 (2017);
         "P. Giannozzi et al., J. Chem. Phys. 152 154105 (2020);
          URL http://www.quantum-espresso.org", 
     in publications or presentations arising from this work. More details at
     http://www.quantum-espresso.org/quote

     Parallel version (MPI), running on    20 processors

     MPI processes distributed on     1 nodes
     317369 MiB available memory on the printing compute node when the environment starts

     Waiting for input...
     Reading input from standard input

     Current dimensions of program PWSCF are:
     Max number of different atomic species (ntypx) = 10
     Max number of k-points (npk) = 120000
     Max angular momentum in pseudopotentials (lmaxx) =  4
     file Sc.pz-spn-kjpaw_psl.1.0.0.UPF: wavefunction(s)  3S 3P 3D renormalized

     R & G space division:  proc/nbgrp/npool/nimage =      20
     Subspace diagonalization in iterative solution of the eigenvalue problem:
     a serial algorithm will be used


     Parallelization info
     --------------------
     sticks:   dense  smooth     PW     G-vecs:    dense   smooth      PW
     Min          42      42     12                 1626     1626     256
     Max          43      43     13                 1637     1637     263
     Sum         859     859    253                32631    32631    5203

     Using Slab Decomposition



     bravais-lattice index     =            4
     lattice parameter (alat)  =       6.2531  a.u.
     unit-cell volume          =     337.5249 (a.u.)^3
     number of atoms/cell      =            2
     number of atomic types    =            1
     number of electrons       =        22.00
     number of Kohn-Sham states=           15
     kinetic-energy cutoff     =      80.0000  Ry
     charge density cutoff     =     320.0000  Ry
     scf convergence threshold =      1.0E-08
     mixing beta               =       0.7000
     number of iterations used =            8  plain     mixing
     Exchange-correlation= SLA  PZ   NOGX NOGC
                           (   1   1   0   0   0   0   0)

     celldm(1)=   6.253104  celldm(2)=   0.000000  celldm(3)=   1.594000
     celldm(4)=   0.000000  celldm(5)=   0.000000  celldm(6)=   0.000000

     crystal axes: (cart. coord. in units of alat)
               a(1) = (   1.000000   0.000000   0.000000 )  
               a(2) = (  -0.500000   0.866025   0.000000 )  
               a(3) = (   0.000000   0.000000   1.594000 )  

     reciprocal axes: (cart. coord. in units 2 pi/alat)
               b(1) = (  1.000000  0.577350 -0.000000 )  
               b(2) = (  0.000000  1.154701  0.000000 )  
               b(3) = (  0.000000 -0.000000  0.627353 )  


     PseudoPot. # 1 for Sc read from file:
     ../../../Sc.pz-spn-kjpaw_psl.1.0.0.UPF
     MD5 check sum: 1f9095df0bb42a6568b4e9f256ff075f
     Pseudo is Projector augmented-wave + core cor, Zval = 11.0
     Generated using 'atomic' code by A. Dal Corso  v.7.1
     Shape of augmentation charge: PSQ
     Using radial grid of 1173 points,  6 beta functions with: 
                l(1) =   0
                l(2) =   0
                l(3) =   1
                l(4) =   1
                l(5) =   2
                l(6) =   2
     Q(r) pseudized with 0 coefficients 


     atomic species   valence    mass     pseudopotential
        Sc            11.00    44.59600     Sc( 1.00)

     24 Sym. Ops., with inversion, found (12 have fractional translation)



   Cartesian axes

     site n.     atom                  positions (alat units)
         1           Sc  tau(   1) = (   0.0000000   0.0000000   0.0000000  )
         2           Sc  tau(   2) = (   0.5000000   0.2886751   0.7970000  )

     number of k points=    48  Marzari-Vanderbilt smearing, width (Ry)=  0.0500
                       cart. coord. in units 2pi/alat
        k(    1) = (   0.0000000   0.0000000   0.0000000), wk =   0.0041152
        k(    2) = (   0.0000000   0.0000000   0.1045588), wk =   0.0082305
        k(    3) = (   0.0000000   0.0000000   0.2091175), wk =   0.0082305
        k(    4) = (   0.0000000   0.0000000  -0.3136763), wk =   0.0041152
        k(    5) = (   0.0000000   0.1283001   0.0000000), wk =   0.0246914
        k(    6) = (   0.0000000   0.1283001   0.1045588), wk =   0.0493827
        k(    7) = (   0.0000000   0.1283001   0.2091175), wk =   0.0493827
        k(    8) = (   0.0000000   0.1283001  -0.3136763), wk =   0.0246914
        k(    9) = (   0.0000000   0.2566001   0.0000000), wk =   0.0246914
        k(   10) = (   0.0000000   0.2566001   0.1045588), wk =   0.0493827
        k(   11) = (   0.0000000   0.2566001   0.2091175), wk =   0.0493827
        k(   12) = (   0.0000000   0.2566001  -0.3136763), wk =   0.0246914
        k(   13) = (   0.0000000   0.3849002   0.0000000), wk =   0.0246914
        k(   14) = (   0.0000000   0.3849002   0.1045588), wk =   0.0493827
        k(   15) = (   0.0000000   0.3849002   0.2091175), wk =   0.0493827
        k(   16) = (   0.0000000   0.3849002  -0.3136763), wk =   0.0246914
        k(   17) = (   0.0000000   0.5132002   0.0000000), wk =   0.0246914
        k(   18) = (   0.0000000   0.5132002   0.1045588), wk =   0.0493827
        k(   19) = (   0.0000000   0.5132002   0.2091175), wk =   0.0493827
        k(   20) = (   0.0000000   0.5132002  -0.3136763), wk =   0.0246914
        k(   21) = (   0.1111111   0.1924501   0.0000000), wk =   0.0246914
        k(   22) = (   0.1111111   0.1924501   0.1045588), wk =   0.0493827
        k(   23) = (   0.1111111   0.1924501   0.2091175), wk =   0.0493827
        k(   24) = (   0.1111111   0.1924501  -0.3136763), wk =   0.0246914
        k(   25) = (   0.1111111   0.3207501   0.0000000), wk =   0.0493827
        k(   26) = (   0.1111111   0.3207501   0.1045588), wk =   0.0987654
        k(   27) = (   0.1111111   0.3207501   0.2091175), wk =   0.0987654
        k(   28) = (   0.1111111   0.3207501  -0.3136763), wk =   0.0493827
        k(   29) = (   0.1111111   0.4490502   0.0000000), wk =   0.0493827
        k(   30) = (   0.1111111   0.4490502   0.1045588), wk =   0.0987654
        k(   31) = (   0.1111111   0.4490502   0.2091175), wk =   0.0987654
        k(   32) = (   0.1111111   0.4490502  -0.3136763), wk =   0.0493827
        k(   33) = (   0.1111111   0.5773503   0.0000000), wk =   0.0246914
        k(   34) = (   0.1111111   0.5773503   0.1045588), wk =   0.0493827
        k(   35) = (   0.1111111   0.5773503   0.2091175), wk =   0.0493827
        k(   36) = (   0.1111111   0.5773503  -0.3136763), wk =   0.0246914
        k(   37) = (   0.2222222   0.3849002   0.0000000), wk =   0.0246914
        k(   38) = (   0.2222222   0.3849002   0.1045588), wk =   0.0493827
        k(   39) = (   0.2222222   0.3849002   0.2091175), wk =   0.0493827
        k(   40) = (   0.2222222   0.3849002  -0.3136763), wk =   0.0246914
        k(   41) = (   0.2222222   0.5132002   0.0000000), wk =   0.0493827
        k(   42) = (   0.2222222   0.5132002   0.1045588), wk =   0.0987654
        k(   43) = (   0.2222222   0.5132002   0.2091175), wk =   0.0987654
        k(   44) = (   0.2222222   0.5132002  -0.3136763), wk =   0.0493827
        k(   45) = (   0.3333333   0.5773503   0.0000000), wk =   0.0082305
        k(   46) = (   0.3333333   0.5773503   0.1045588), wk =   0.0164609
        k(   47) = (   0.3333333   0.5773503   0.2091175), wk =   0.0164609
        k(   48) = (   0.3333333   0.5773503  -0.3136763), wk =   0.0082305

     Dense  grid:    32631 G-vectors     FFT dimensions: (  36,  36,  60)

     Estimated max dynamical RAM per process >       9.47 MB

     Estimated total dynamical RAM >     189.35 MB

     Check: negative core charge=   -0.000015

     Initial potential from superposition of free atoms

     starting charge      21.9956, renormalised to      22.0000
     Starting wfcs are   20 randomized atomic wfcs
     Checking if some PAW data can be deallocated... 

     total cpu time spent up to now is        0.7 secs

     Self-consistent Calculation

     iteration #  1     ecut=    80.00 Ry     beta= 0.70
     Davidson diagonalization with overlap
     ethr =  1.00E-02,  avg # of iterations =  2.4

     Threshold (ethr) on eigenvalues was too large:
     Diagonalizing with lowered threshold

     Davidson diagonalization with overlap
     c_bands:  3 eigenvalues not converged
     c_bands:  1 eigenvalues not converged
     c_bands:  1 eigenvalues not converged
     c_bands:  1 eigenvalues not converged
     c_bands:  1 eigenvalues not converged
     c_bands:  1 eigenvalues not converged
     c_bands:  5 eigenvalues not converged
     c_bands:  1 eigenvalues not converged
     c_bands:  2 eigenvalues not converged
     c_bands:  1 eigenvalues not converged
     c_bands:  1 eigenvalues not converged
     c_bands:  5 eigenvalues not converged
     c_bands:  3 eigenvalues not converged
     c_bands:  2 eigenvalues not converged
     c_bands:  1 eigenvalues not converged
     c_bands:  4 eigenvalues not converged
     ethr =  1.66E-05,  avg # of iterations = 18.2

     total cpu time spent up to now is        4.6 secs

     total energy              =    -306.87049952 Ry
     estimated scf accuracy    <       0.02005204 Ry

     iteration #  2     ecut=    80.00 Ry     beta= 0.70
     Davidson diagonalization with overlap
     ethr =  9.11E-05,  avg # of iterations =  5.1

     total cpu time spent up to now is        5.5 secs

     total energy              =    -306.87546307 Ry
     estimated scf accuracy    <       0.00147258 Ry

     iteration #  3     ecut=    80.00 Ry     beta= 0.70
     Davidson diagonalization with overlap
     c_bands:  1 eigenvalues not converged
     c_bands:  2 eigenvalues not converged
     ethr =  6.69E-06,  avg # of iterations =  8.4

     total cpu time spent up to now is        6.8 secs

     total energy              =    -306.87660334 Ry
     estimated scf accuracy    <       0.00035558 Ry

     iteration #  4     ecut=    80.00 Ry     beta= 0.70
     Davidson diagonalization with overlap
     ethr =  1.62E-06,  avg # of iterations =  7.5

     total cpu time spent up to now is        7.9 secs

     total energy              =    -306.87681262 Ry
     estimated scf accuracy    <       0.00015004 Ry

     iteration #  5     ecut=    80.00 Ry     beta= 0.70
     Davidson diagonalization with overlap
     ethr =  6.82E-07,  avg # of iterations =  7.0

     total cpu time spent up to now is        9.0 secs

     total energy              =    -306.87689288 Ry
     estimated scf accuracy    <       0.00001221 Ry

     iteration #  6     ecut=    80.00 Ry     beta= 0.70
     Davidson diagonalization with overlap
     ethr =  5.55E-08,  avg # of iterations = 11.2

     total cpu time spent up to now is       10.3 secs

     total energy              =    -306.87689791 Ry
     estimated scf accuracy    <       0.00001705 Ry

     iteration #  7     ecut=    80.00 Ry     beta= 0.70
     Davidson diagonalization with overlap
     ethr =  5.55E-08,  avg # of iterations =  5.3

     total cpu time spent up to now is       11.3 secs

     total energy              =    -306.87690170 Ry
     estimated scf accuracy    <       0.00000010 Ry

     iteration #  8     ecut=    80.00 Ry     beta= 0.70
     Davidson diagonalization with overlap
     c_bands:  1 eigenvalues not converged
     c_bands:  1 eigenvalues not converged
     c_bands:  1 eigenvalues not converged
     c_bands:  1 eigenvalues not converged
     c_bands:  2 eigenvalues not converged
     c_bands:  2 eigenvalues not converged
     c_bands:  2 eigenvalues not converged
     c_bands:  1 eigenvalues not converged
     c_bands:  1 eigenvalues not converged
     c_bands:  2 eigenvalues not converged
     c_bands:  1 eigenvalues not converged
     c_bands:  1 eigenvalues not converged
     c_bands:  2 eigenvalues not converged
     c_bands:  1 eigenvalues not converged
     c_bands:  2 eigenvalues not converged
     c_bands:  1 eigenvalues not converged
     c_bands:  1 eigenvalues not converged
     c_bands:  2 eigenvalues not converged
     c_bands:  1 eigenvalues not converged
     c_bands:  3 eigenvalues not converged
     c_bands:  2 eigenvalues not converged
     c_bands:  1 eigenvalues not converged
     c_bands:  5 eigenvalues not converged
     c_bands:  1 eigenvalues not converged
     c_bands:  5 eigenvalues not converged
     c_bands:  3 eigenvalues not converged
     ethr =  4.67E-10,  avg # of iterations = 19.2

     total cpu time spent up to now is       13.9 secs

     total energy              =    -306.87690303 Ry
     estimated scf accuracy    <       0.00000055 Ry

     iteration #  9     ecut=    80.00 Ry     beta= 0.70
     Davidson diagonalization with overlap
     ethr =  4.67E-10,  avg # of iterations =  8.3

     total cpu time spent up to now is       15.1 secs

     total energy              =    -306.87690320 Ry
     estimated scf accuracy    <       0.00000005 Ry

     iteration # 10     ecut=    80.00 Ry     beta= 0.70
     Davidson diagonalization with overlap
     ethr =  2.23E-10,  avg # of iterations =  6.6

     total cpu time spent up to now is       16.2 secs

     total energy              =    -306.87690322 Ry
     estimated scf accuracy    <       0.00000002 Ry

     iteration # 11     ecut=    80.00 Ry     beta= 0.70
     Davidson diagonalization with overlap
     ethr =  7.29E-11,  avg # of iterations =  3.2

     total cpu time spent up to now is       16.9 secs

     End of self-consistent calculation

          k = 0.0000 0.0000 0.0000 (  4055 PWs)   bands (ev):

   -40.1366 -40.0722 -19.2282 -18.8852 -18.8852 -18.8267 -18.8267 -18.8192
     3.7527   7.1397   9.2979  10.3554  10.3554  10.4578  10.7589

          k = 0.0000 0.0000 0.1046 (  4061 PWs)   bands (ev):

   -40.1323 -40.0766 -19.2017 -18.8813 -18.8813 -18.8475 -18.8306 -18.8306
     3.9320   6.8681   9.2571  10.2884  10.2884  10.3433  10.6638

          k = 0.0000 0.0000 0.2091 (  4078 PWs)   bands (ev):

   -40.1206 -40.0884 -19.1285 -18.9241 -18.8706 -18.8706 -18.8414 -18.8414
     4.4482   6.1300   9.3525  10.0401  10.2332  10.2332  10.4642

          k = 0.0000 0.0000-0.3137 (  4060 PWs)   bands (ev):

   -40.1045 -40.1045 -19.0272 -19.0272 -18.8560 -18.8560 -18.8560 -18.8560
     5.2304   5.2304   9.6597   9.6597  10.2948  10.2948  10.2948

          k = 0.0000 0.1283 0.0000 (  4073 PWs)   bands (ev):

   -40.1308 -40.0699 -19.2127 -18.9171 -18.8957 -18.8598 -18.8313 -18.8258
     4.0200   7.3661   9.0882   9.9560  10.5495  10.5776  10.7575

          k = 0.0000 0.1283 0.1046 (  4060 PWs)   bands (ev):

   -40.1267 -40.0740 -19.1890 -18.9119 -18.8914 -18.8794 -18.8365 -18.8356
     4.1946   7.0928   9.0595   9.9679  10.4226  10.4475  10.5625

          k = 0.0000 0.1283 0.2091 (  4065 PWs)   bands (ev):

   -40.1156 -40.0852 -19.1239 -18.9437 -18.8967 -18.8796 -18.8555 -18.8474
     4.6980   6.3521   9.1963   9.9872  10.0430  10.3781  10.4020

          k = 0.0000 0.1283-0.3137 (  4070 PWs)   bands (ev):

   -40.1004 -40.1004 -19.0339 -19.0339 -18.8767 -18.8767 -18.8636 -18.8636
     5.4636   5.4636   9.5498   9.5498  10.1886  10.1886  10.4409

          k = 0.0000 0.2566 0.0000 (  4069 PWs)   bands (ev):

   -40.1156 -40.0644 -19.1701 -18.9986 -18.9414 -18.9212 -18.8458 -18.8439
     4.7748   7.8994   8.6788   9.3845  10.2462  10.5549  10.6448

          k = 0.0000 0.2566 0.1046 (  4071 PWs)   bands (ev):

   -40.1121 -40.0679 -19.1574 -18.9884 -18.9586 -18.9161 -18.8524 -18.8491
     4.9328   7.6295   8.6938   9.4322  10.1995  10.4094  10.6231

          k = 0.0000 0.2566 0.2091 (  4073 PWs)   bands (ev):

   -40.1028 -40.0772 -19.1213 -19.0115 -18.9508 -18.9020 -18.8746 -18.8633
     5.3890   6.9104   8.9118   9.5226   9.9217  10.2267  10.6537

          k = 0.0000 0.2566-0.3137 (  4064 PWs)   bands (ev):

   -40.0900 -40.0900 -19.0686 -19.0686 -18.9108 -18.9108 -18.8827 -18.8827
     6.0866   6.0866   9.2843   9.2843   9.9703   9.9704  10.7936

          k = 0.0000 0.3849 0.0000 (  4090 PWs)   bands (ev):

   -40.0967 -40.0597 -19.1120 -19.0925 -19.0304 -18.9490 -18.8781 -18.8593
     5.8639   8.1848   8.3309   8.9125  10.2148  10.2162  10.3519

          k = 0.0000 0.3849 0.1046 (  4081 PWs)   bands (ev):

   -40.0942 -40.0622 -19.1412 -19.0617 -19.0323 -18.9430 -18.8779 -18.8653
     5.9825   7.9485   8.4448   8.9813  10.0146  10.2985  10.4396

          k = 0.0000 0.3849 0.2091 (  4079 PWs)   bands (ev):

   -40.0874 -40.0690 -19.1517 -19.0967 -18.9758 -18.9267 -18.8887 -18.8819
     6.3230   7.4296   8.7060   9.0885   9.8500  10.1443  10.6921

          k = 0.0000 0.3849-0.3137 (  4070 PWs)   bands (ev):

   -40.0782 -40.0782 -19.1343 -19.1343 -18.9222 -18.9222 -18.9043 -18.9043
     6.8365   6.8365   9.0007   9.0007   9.8958   9.8958  11.0731

          k = 0.0000 0.5132 0.0000 (  4082 PWs)   bands (ev):

   -40.0822 -40.0587 -19.1542 -19.0867 -19.0606 -18.9666 -18.9127 -18.8697
     6.9581   7.9286   8.1444   8.5988  10.0119  10.1833  10.4811

          k = 0.0000 0.5132 0.1046 (  4078 PWs)   bands (ev):

   -40.0806 -40.0603 -19.1746 -19.1094 -19.0245 -18.9602 -18.9051 -18.8763
     6.9834   7.8168   8.3132   8.6343  10.0641  10.2967  10.3749

          k = 0.0000 0.5132 0.2091 (  4076 PWs)   bands (ev):

   -40.0763 -40.0646 -19.1928 -19.1516 -18.9667 -18.9426 -18.9014 -18.8941
     7.0876   7.5728   8.6210   8.7998  10.0690  10.1619  10.6266

          k = 0.0000 0.5132-0.3137 (  4086 PWs)   bands (ev):

   -40.0705 -40.0705 -19.1845 -19.1845 -18.9215 -18.9215 -18.9184 -18.9184
     7.2961   7.2961   8.8624   8.8624  10.0248  10.0251  11.1388

          k = 0.1111 0.1925 0.0000 (  4059 PWs)   bands (ev):

   -40.1203 -40.0660 -19.1836 -18.9649 -18.9401 -18.8936 -18.8460 -18.8392
     4.5325   7.7594   8.7970   9.5227  10.3448  10.5537  10.9502

          k = 0.1111 0.1925 0.1046 (  4065 PWs)   bands (ev):

   -40.1166 -40.0696 -19.1665 -18.9561 -18.9469 -18.9028 -18.8508 -18.8452
     4.6966   7.4856   8.7935   9.5653  10.3275  10.3815  10.6477

          k = 0.1111 0.1925 0.2091 (  4058 PWs)   bands (ev):

   -40.1067 -40.0796 -19.1195 -18.9883 -18.9325 -18.9025 -18.8640 -18.8636
     5.1709   6.7495   8.9898   9.6577   9.9529  10.2538  10.6037

          k = 0.1111 0.1925-0.3137 (  4064 PWs)   bands (ev):

   -40.0932 -40.0932 -19.0542 -19.0542 -18.9041 -18.9041 -18.8774 -18.8774
     5.8958   5.8958   9.3722   9.3722  10.0052  10.0052  10.6928

          k = 0.1111 0.3208 0.0000 (  4073 PWs)   bands (ev):

   -40.1031 -40.0610 -19.1327 -19.0452 -19.0104 -18.9346 -18.8679 -18.8658
     5.4665   8.2437   8.4683   9.0037  10.1504  10.1805  10.5549

          k = 0.1111 0.3208 0.1046 (  4072 PWs)   bands (ev):

   -40.1003 -40.0638 -19.1365 -19.0348 -19.0089 -18.9382 -18.8757 -18.8630
     5.6051   7.9782   8.5398   9.0653  10.0351  10.2557  10.5072

          k = 0.1111 0.3208 0.2091 (  4075 PWs)   bands (ev):

   -40.0926 -40.0715 -19.1303 -19.0637 -18.9680 -18.9329 -18.8906 -18.8720
     6.0047   7.3329   8.7936   9.1967   9.8200  10.0819  10.6640

          k = 0.1111 0.3208-0.3137 (  4078 PWs)   bands (ev):

   -40.0821 -40.0821 -19.1036 -19.1036 -18.9315 -18.9315 -18.8939 -18.8939
     6.6140   6.6140   9.1170   9.1170   9.8073   9.8073  10.9617

          k = 0.1111 0.4491 0.0000 (  4071 PWs)   bands (ev):

   -40.0859 -40.0586 -19.1224 -19.0749 -19.0641 -18.9720 -18.9023 -18.8856
     6.6033   8.2159   8.2473   8.6630   9.9711  10.2302  10.3744

          k = 0.1111 0.4491 0.1046 (  4088 PWs)   bands (ev):

   -40.0841 -40.0604 -19.1480 -19.0898 -19.0291 -18.9675 -18.9031 -18.8835
     6.6857   8.0239   8.3945   8.7580   9.9079  10.1713  10.4342

          k = 0.1111 0.4491 0.2091 (  4076 PWs)   bands (ev):

   -40.0791 -40.0654 -19.1668 -19.1272 -18.9832 -18.9456 -18.9156 -18.8821
     6.9222   7.6795   8.6624   8.9334   9.7768   9.9459  10.6804

          k = 0.1111 0.4491-0.3137 (  4078 PWs)   bands (ev):

   -40.0723 -40.0723 -19.1585 -19.1585 -18.9519 -18.9519 -18.8997 -18.8997
     7.2772   7.2772   8.9380   8.9380   9.7367   9.7367  11.0866

          k = 0.1111 0.5774 0.0000 (  4077 PWs)   bands (ev):

   -40.0776 -40.0592 -19.1529 -19.0852 -19.0424 -18.9865 -18.9263 -18.8925
     7.3816   7.9115   8.1724   8.4904   9.9482  10.0495  10.5679

          k = 0.1111 0.5774 0.1046 (  4077 PWs)   bands (ev):

   -40.0764 -40.0604 -19.1699 -19.1080 -19.0213 -18.9717 -18.9221 -18.8922
     7.3595   7.8738   8.3502   8.5234   9.9570  10.0215  10.5765

          k = 0.1111 0.5774 0.2091 (  4077 PWs)   bands (ev):

   -40.0730 -40.0638 -19.1877 -19.1505 -18.9901 -18.9342 -18.9337 -18.8880
     7.3844   7.7189   8.7024   8.7259   9.8286   9.8924  10.7771

          k = 0.1111 0.5774-0.3137 (  4086 PWs)   bands (ev):

   -40.0684 -40.0684 -19.1816 -19.1816 -18.9604 -18.9604 -18.8999 -18.8999
     7.5181   7.5181   8.9135   8.9135   9.7213   9.7213  11.1893

          k = 0.2222 0.3849 0.0000 (  4095 PWs)   bands (ev):

   -40.0874 -40.0586 -19.0844 -19.0803 -19.0675 -18.9689 -18.9108 -18.8985
     6.4796   8.3315   8.4926   8.5900   9.8714  10.2840  10.2885

          k = 0.2222 0.3849 0.1046 (  4094 PWs)   bands (ev):

   -40.0854 -40.0605 -19.1206 -19.0907 -19.0149 -18.9821 -18.9158 -18.8860
     6.5836   8.1865   8.5803   8.6557   9.8368  10.1320  10.3392

          k = 0.2222 0.3849 0.2091 (  4087 PWs)   bands (ev):

   -40.0802 -40.0658 -19.1426 -19.1131 -18.9866 -18.9695 -18.9194 -18.8783
     6.8801   7.8038   8.7965   8.8330   9.6971   9.8087  10.5502

          k = 0.2222 0.3849-0.3137 (  4072 PWs)   bands (ev):

   -40.0730 -40.0730 -19.1374 -19.1374 -18.9729 -18.9729 -18.8943 -18.8943
     7.3189   7.3189   8.9689   8.9689   9.5791   9.5791  10.9481

          k = 0.2222 0.5132 0.0000 (  4091 PWs)   bands (ev):

   -40.0743 -40.0598 -19.1223 -19.0669 -19.0286 -19.0150 -18.9401 -18.9372
     7.5025   8.2661   8.2896   8.4221   9.7850   9.9572  10.6226

          k = 0.2222 0.5132 0.1046 (  4085 PWs)   bands (ev):

   -40.0733 -40.0608 -19.1336 -19.0950 -19.0369 -18.9823 -18.9498 -18.9119
     7.5520   8.1829   8.3868   8.5616   9.7239   9.8072  10.6398

          k = 0.2222 0.5132 0.2091 (  4103 PWs)   bands (ev):

   -40.0707 -40.0634 -19.1536 -19.1305 -19.0323 -18.9815 -18.9215 -18.8889
     7.6893   8.0543   8.6296   8.8416   9.4487   9.5430  10.7567

          k = 0.2222 0.5132-0.3137 (  4090 PWs)   bands (ev):

   -40.0671 -40.0671 -19.1543 -19.1543 -19.0083 -19.0083 -18.8913 -18.8913
     7.8768   7.8768   8.9588   8.9588   9.2672   9.2672  11.0580

          k = 0.3333 0.5774 0.0000 (  4077 PWs)   bands (ev):

   -40.0650 -40.0650 -19.1089 -19.0475 -19.0475 -18.9807 -18.9807 -18.9802
     8.1554   8.1554   8.2685   8.3470   9.7570   9.7570  10.7796

          k = 0.3333 0.5774 0.1046 (  4092 PWs)   bands (ev):

   -40.0650 -40.0650 -19.1004 -19.0827 -19.0827 -18.9890 -18.9450 -18.9450
     8.2359   8.2359   8.3012   8.3791   9.6234   9.6234  10.7792

          k = 0.3333 0.5774 0.2091 (  4083 PWs)   bands (ev):

   -40.0650 -40.0650 -19.1229 -19.1229 -19.0770 -19.0127 -18.9039 -18.9039
     8.3785   8.4368   8.4533   8.4533   9.3130   9.3130  10.8393

          k = 0.3333 0.5774-0.3137 (  4128 PWs)   bands (ev):

   -40.0650 -40.0650 -19.1382 -19.1382 -19.0450 -19.0450 -18.8882 -18.8882
     8.4427   8.4427   8.6485   8.6485   9.0765   9.0765  11.0815

     the Fermi energy is     8.8541 ev

!    total energy              =    -306.87690322 Ry
     total all-electron energy =     -3050.017674 Ry
     estimated scf accuracy    <          3.4E-09 Ry
     smearing contrib. (-TS)   =      -0.00978121 Ry
     internal energy E=F+TS    =    -306.86712201 Ry

     The total energy is F=E-TS. E is the sum of the following terms:
     one-electron contribution =     -74.40366983 Ry
     hartree contribution      =      42.28717890 Ry
     xc contribution           =     -34.52759704 Ry
     ewald contribution        =    -126.46581261 Ry
     one-center paw contrib.   =    -113.75722143 Ry

     convergence has been achieved in  11 iterations

     Writing all to output data dir sc_smearing.out/scandium.save/

     init_run     :      0.45s CPU      0.48s WALL (       1 calls)
     electrons    :     15.46s CPU     16.25s WALL (       1 calls)

     Called by init_run:
     wfcinit      :      0.29s CPU      0.30s WALL (       1 calls)
     potinit      :      0.06s CPU      0.06s WALL (       1 calls)
     hinit0       :      0.09s CPU      0.09s WALL (       1 calls)

     Called by electrons:
     c_bands      :     13.80s CPU     14.53s WALL (      12 calls)
     sum_band     :      1.17s CPU      1.21s WALL (      12 calls)
     v_of_rho     :      0.01s CPU      0.01s WALL (      12 calls)
     newd         :      0.14s CPU      0.14s WALL (      12 calls)
     PAW_pot      :      0.37s CPU      0.37s WALL (      12 calls)
     mix_rho      :      0.01s CPU      0.01s WALL (      12 calls)

     Called by c_bands:
     init_us_2    :      0.14s CPU      0.15s WALL (    1200 calls)
     init_us_2:cp :      0.14s CPU      0.15s WALL (    1200 calls)
     cegterg      :     13.49s CPU     13.95s WALL (     578 calls)

     Called by *egterg:
     cdiaghg      :      1.58s CPU      1.63s WALL (    5442 calls)
     h_psi        :      8.90s CPU      9.26s WALL (    5540 calls)
     s_psi        :      0.59s CPU      0.61s WALL (    5540 calls)
     g_psi        :      0.06s CPU      0.06s WALL (    4914 calls)

     Called by h_psi:
     h_psi:calbec :      0.75s CPU      0.79s WALL (    5540 calls)
     vloc_psi     :      7.51s CPU      7.82s WALL (    5540 calls)
     add_vuspsi   :      0.59s CPU      0.61s WALL (    5540 calls)

     General routines
     calbec       :      0.88s CPU      0.92s WALL (    6116 calls)
     fft          :      0.01s CPU      0.01s WALL (      49 calls)
     ffts         :      0.00s CPU      0.00s WALL (      12 calls)
     fftw         :      7.69s CPU      7.99s WALL (   92866 calls)

     Parallel routines

     PWSCF        :     16.21s CPU     17.28s WALL


   This run was terminated on:  16:41:55  26Jul2023            

=------------------------------------------------------------------------------=
   JOB DONE.
=------------------------------------------------------------------------------=
