
     Program PWSCF v.7.2 starts on 26Jul2023 at 12:14:59 

     This program is part of the open-source Quantum ESPRESSO suite
     for quantum simulation of materials; please cite
         "P. Giannozzi et al., J. Phys.:Condens. Matter 21 395502 (2009);
         "P. Giannozzi et al., J. Phys.:Condens. Matter 29 465901 (2017);
         "P. Giannozzi et al., J. Chem. Phys. 152 154105 (2020);
          URL http://www.quantum-espresso.org", 
     in publications or presentations arising from this work. More details at
     http://www.quantum-espresso.org/quote

     Parallel version (MPI), running on    20 processors

     MPI processes distributed on     1 nodes
     317359 MiB available memory on the printing compute node when the environment starts

     Waiting for input...
     Reading input from standard input

     Current dimensions of program PWSCF are:
     Max number of different atomic species (ntypx) = 10
     Max number of k-points (npk) = 120000
     Max angular momentum in pseudopotentials (lmaxx) =  4
     file Sc.pz-spn-kjpaw_psl.1.0.0.UPF: wavefunction(s)  3S 3P 3D renormalized

     R & G space division:  proc/nbgrp/npool/nimage =      20
     Subspace diagonalization in iterative solution of the eigenvalue problem:
     a serial algorithm will be used


     Parallelization info
     --------------------
     sticks:   dense  smooth     PW     G-vecs:    dense   smooth      PW
     Min          53      53     15                 2281     2281     349
     Max          54      54     16                 2290     2290     356
     Sum        1069    1069    313                45687    45687    7055

     Using Slab Decomposition



     bravais-lattice index     =            4
     lattice parameter (alat)  =       6.2531  a.u.
     unit-cell volume          =     337.5249 (a.u.)^3
     number of atoms/cell      =            2
     number of atomic types    =            1
     number of electrons       =        22.00
     number of Kohn-Sham states=           15
     kinetic-energy cutoff     =     100.0000  Ry
     charge density cutoff     =     400.0000  Ry
     scf convergence threshold =      1.0E-08
     mixing beta               =       0.7000
     number of iterations used =            8  plain     mixing
     Exchange-correlation= SLA  PZ   NOGX NOGC
                           (   1   1   0   0   0   0   0)

     celldm(1)=   6.253104  celldm(2)=   0.000000  celldm(3)=   1.594000
     celldm(4)=   0.000000  celldm(5)=   0.000000  celldm(6)=   0.000000

     crystal axes: (cart. coord. in units of alat)
               a(1) = (   1.000000   0.000000   0.000000 )  
               a(2) = (  -0.500000   0.866025   0.000000 )  
               a(3) = (   0.000000   0.000000   1.594000 )  

     reciprocal axes: (cart. coord. in units 2 pi/alat)
               b(1) = (  1.000000  0.577350 -0.000000 )  
               b(2) = (  0.000000  1.154701  0.000000 )  
               b(3) = (  0.000000 -0.000000  0.627353 )  


     PseudoPot. # 1 for Sc read from file:
     ../../Sc.pz-spn-kjpaw_psl.1.0.0.UPF
     MD5 check sum: 1f9095df0bb42a6568b4e9f256ff075f
     Pseudo is Projector augmented-wave + core cor, Zval = 11.0
     Generated using 'atomic' code by A. Dal Corso  v.7.1
     Shape of augmentation charge: PSQ
     Using radial grid of 1173 points,  6 beta functions with: 
                l(1) =   0
                l(2) =   0
                l(3) =   1
                l(4) =   1
                l(5) =   2
                l(6) =   2
     Q(r) pseudized with 0 coefficients 


     atomic species   valence    mass     pseudopotential
        Sc            11.00    44.59600     Sc( 1.00)

     24 Sym. Ops., with inversion, found (12 have fractional translation)



   Cartesian axes

     site n.     atom                  positions (alat units)
         1           Sc  tau(   1) = (   0.0000000   0.0000000   0.0000000  )
         2           Sc  tau(   2) = (   0.5000000   0.2886751   0.7970000  )

     number of k points=    95  Marzari-Vanderbilt smearing, width (Ry)=  0.0200
                       cart. coord. in units 2pi/alat
        k(    1) = (   0.0000000   0.0000000   0.0000000), wk =   0.0017361
        k(    2) = (   0.0000000   0.0000000   0.0784191), wk =   0.0034722
        k(    3) = (   0.0000000   0.0000000   0.1568381), wk =   0.0034722
        k(    4) = (   0.0000000   0.0000000   0.2352572), wk =   0.0034722
        k(    5) = (   0.0000000   0.0000000  -0.3136763), wk =   0.0017361
        k(    6) = (   0.0000000   0.0962250   0.0000000), wk =   0.0104167
        k(    7) = (   0.0000000   0.0962250   0.0784191), wk =   0.0208333
        k(    8) = (   0.0000000   0.0962250   0.1568381), wk =   0.0208333
        k(    9) = (   0.0000000   0.0962250   0.2352572), wk =   0.0208333
        k(   10) = (   0.0000000   0.0962250  -0.3136763), wk =   0.0104167
        k(   11) = (   0.0000000   0.1924501   0.0000000), wk =   0.0104167
        k(   12) = (   0.0000000   0.1924501   0.0784191), wk =   0.0208333
        k(   13) = (   0.0000000   0.1924501   0.1568381), wk =   0.0208333
        k(   14) = (   0.0000000   0.1924501   0.2352572), wk =   0.0208333
        k(   15) = (   0.0000000   0.1924501  -0.3136763), wk =   0.0104167
        k(   16) = (   0.0000000   0.2886751   0.0000000), wk =   0.0104167
        k(   17) = (   0.0000000   0.2886751   0.0784191), wk =   0.0208333
        k(   18) = (   0.0000000   0.2886751   0.1568381), wk =   0.0208333
        k(   19) = (   0.0000000   0.2886751   0.2352572), wk =   0.0208333
        k(   20) = (   0.0000000   0.2886751  -0.3136763), wk =   0.0104167
        k(   21) = (   0.0000000   0.3849002   0.0000000), wk =   0.0104167
        k(   22) = (   0.0000000   0.3849002   0.0784191), wk =   0.0208333
        k(   23) = (   0.0000000   0.3849002   0.1568381), wk =   0.0208333
        k(   24) = (   0.0000000   0.3849002   0.2352572), wk =   0.0208333
        k(   25) = (   0.0000000   0.3849002  -0.3136763), wk =   0.0104167
        k(   26) = (   0.0000000   0.4811252   0.0000000), wk =   0.0104167
        k(   27) = (   0.0000000   0.4811252   0.0784191), wk =   0.0208333
        k(   28) = (   0.0000000   0.4811252   0.1568381), wk =   0.0208333
        k(   29) = (   0.0000000   0.4811252   0.2352572), wk =   0.0208333
        k(   30) = (   0.0000000   0.4811252  -0.3136763), wk =   0.0104167
        k(   31) = (   0.0000000  -0.5773503   0.0000000), wk =   0.0052083
        k(   32) = (   0.0000000  -0.5773503   0.0784191), wk =   0.0104167
        k(   33) = (   0.0000000  -0.5773503   0.1568381), wk =   0.0104167
        k(   34) = (   0.0000000  -0.5773503   0.2352572), wk =   0.0104167
        k(   35) = (   0.0000000  -0.5773503  -0.3136763), wk =   0.0052083
        k(   36) = (   0.0833333   0.1443376   0.0000000), wk =   0.0104167
        k(   37) = (   0.0833333   0.1443376   0.0784191), wk =   0.0208333
        k(   38) = (   0.0833333   0.1443376   0.1568381), wk =   0.0208333
        k(   39) = (   0.0833333   0.1443376   0.2352572), wk =   0.0208333
        k(   40) = (   0.0833333   0.1443376  -0.3136763), wk =   0.0104167
        k(   41) = (   0.0833333   0.2405626   0.0000000), wk =   0.0208333
        k(   42) = (   0.0833333   0.2405626   0.0784191), wk =   0.0416667
        k(   43) = (   0.0833333   0.2405626   0.1568381), wk =   0.0416667
        k(   44) = (   0.0833333   0.2405626   0.2352572), wk =   0.0416667
        k(   45) = (   0.0833333   0.2405626  -0.3136763), wk =   0.0208333
        k(   46) = (   0.0833333   0.3367877   0.0000000), wk =   0.0208333
        k(   47) = (   0.0833333   0.3367877   0.0784191), wk =   0.0416667
        k(   48) = (   0.0833333   0.3367877   0.1568381), wk =   0.0416667
        k(   49) = (   0.0833333   0.3367877   0.2352572), wk =   0.0416667
        k(   50) = (   0.0833333   0.3367877  -0.3136763), wk =   0.0208333
        k(   51) = (   0.0833333   0.4330127   0.0000000), wk =   0.0208333
        k(   52) = (   0.0833333   0.4330127   0.0784191), wk =   0.0416667
        k(   53) = (   0.0833333   0.4330127   0.1568381), wk =   0.0416667
        k(   54) = (   0.0833333   0.4330127   0.2352572), wk =   0.0416667
        k(   55) = (   0.0833333   0.4330127  -0.3136763), wk =   0.0208333
        k(   56) = (   0.0833333   0.5292377   0.0000000), wk =   0.0208333
        k(   57) = (   0.0833333   0.5292377   0.0784191), wk =   0.0416667
        k(   58) = (   0.0833333   0.5292377   0.1568381), wk =   0.0416667
        k(   59) = (   0.0833333   0.5292377   0.2352572), wk =   0.0416667
        k(   60) = (   0.0833333   0.5292377  -0.3136763), wk =   0.0208333
        k(   61) = (   0.1666667   0.2886751   0.0000000), wk =   0.0104167
        k(   62) = (   0.1666667   0.2886751   0.0784191), wk =   0.0208333
        k(   63) = (   0.1666667   0.2886751   0.1568381), wk =   0.0208333
        k(   64) = (   0.1666667   0.2886751   0.2352572), wk =   0.0208333
        k(   65) = (   0.1666667   0.2886751  -0.3136763), wk =   0.0104167
        k(   66) = (   0.1666667   0.3849002   0.0000000), wk =   0.0208333
        k(   67) = (   0.1666667   0.3849002   0.0784191), wk =   0.0416667
        k(   68) = (   0.1666667   0.3849002   0.1568381), wk =   0.0416667
        k(   69) = (   0.1666667   0.3849002   0.2352572), wk =   0.0416667
        k(   70) = (   0.1666667   0.3849002  -0.3136763), wk =   0.0208333
        k(   71) = (   0.1666667   0.4811252   0.0000000), wk =   0.0208333
        k(   72) = (   0.1666667   0.4811252   0.0784191), wk =   0.0416667
        k(   73) = (   0.1666667   0.4811252   0.1568381), wk =   0.0416667
        k(   74) = (   0.1666667   0.4811252   0.2352572), wk =   0.0416667
        k(   75) = (   0.1666667   0.4811252  -0.3136763), wk =   0.0208333
        k(   76) = (   0.1666667   0.5773503   0.0000000), wk =   0.0104167
        k(   77) = (   0.1666667   0.5773503   0.0784191), wk =   0.0208333
        k(   78) = (   0.1666667   0.5773503   0.1568381), wk =   0.0208333
        k(   79) = (   0.1666667   0.5773503   0.2352572), wk =   0.0208333
        k(   80) = (   0.1666667   0.5773503  -0.3136763), wk =   0.0104167
        k(   81) = (   0.2500000   0.4330127   0.0000000), wk =   0.0104167
        k(   82) = (   0.2500000   0.4330127   0.0784191), wk =   0.0208333
        k(   83) = (   0.2500000   0.4330127   0.1568381), wk =   0.0208333
        k(   84) = (   0.2500000   0.4330127   0.2352572), wk =   0.0208333
        k(   85) = (   0.2500000   0.4330127  -0.3136763), wk =   0.0104167
        k(   86) = (   0.2500000   0.5292377   0.0000000), wk =   0.0208333
        k(   87) = (   0.2500000   0.5292377   0.0784191), wk =   0.0416667
        k(   88) = (   0.2500000   0.5292377   0.1568381), wk =   0.0416667
        k(   89) = (   0.2500000   0.5292377   0.2352572), wk =   0.0416667
        k(   90) = (   0.2500000   0.5292377  -0.3136763), wk =   0.0208333
        k(   91) = (   0.3333333   0.5773503   0.0000000), wk =   0.0034722
        k(   92) = (   0.3333333   0.5773503   0.0784191), wk =   0.0069444
        k(   93) = (   0.3333333   0.5773503   0.1568381), wk =   0.0069444
        k(   94) = (   0.3333333   0.5773503   0.2352572), wk =   0.0069444
        k(   95) = (   0.3333333   0.5773503  -0.3136763), wk =   0.0034722

     Dense  grid:    45687 G-vectors     FFT dimensions: (  45,  45,  64)

     Estimated max dynamical RAM per process >      16.10 MB

     Estimated total dynamical RAM >     322.03 MB

     Check: negative core charge=   -0.000012

     Initial potential from superposition of free atoms

     starting charge      21.9956, renormalised to      22.0000
     Starting wfcs are   20 randomized atomic wfcs
     Checking if some PAW data can be deallocated... 

     total cpu time spent up to now is        1.4 secs

     Self-consistent Calculation

     iteration #  1     ecut=   100.00 Ry     beta= 0.70
     Davidson diagonalization with overlap
     ethr =  1.00E-02,  avg # of iterations =  2.1

     Threshold (ethr) on eigenvalues was too large:
     Diagonalizing with lowered threshold

     Davidson diagonalization with overlap
     c_bands:  2 eigenvalues not converged
     c_bands:  1 eigenvalues not converged
     c_bands:  1 eigenvalues not converged
     c_bands:  1 eigenvalues not converged
     c_bands:  1 eigenvalues not converged
     c_bands:  1 eigenvalues not converged
     c_bands:  1 eigenvalues not converged
     c_bands:  5 eigenvalues not converged
     c_bands:  2 eigenvalues not converged
     c_bands:  2 eigenvalues not converged
     c_bands:  5 eigenvalues not converged
     c_bands:  4 eigenvalues not converged
     c_bands:  2 eigenvalues not converged
     c_bands:  2 eigenvalues not converged
     c_bands:  1 eigenvalues not converged
     c_bands:  1 eigenvalues not converged
     c_bands:  1 eigenvalues not converged
     c_bands:  1 eigenvalues not converged
     c_bands:  5 eigenvalues not converged
     c_bands:  2 eigenvalues not converged
     c_bands:  1 eigenvalues not converged
     c_bands:  1 eigenvalues not converged
     c_bands:  3 eigenvalues not converged
     c_bands:  1 eigenvalues not converged
     ethr =  2.29E-05,  avg # of iterations = 17.4

     total cpu time spent up to now is       12.6 secs

     total energy              =    -306.86739513 Ry
     estimated scf accuracy    <       0.01977234 Ry

     iteration #  2     ecut=   100.00 Ry     beta= 0.70
     Davidson diagonalization with overlap
     ethr =  8.99E-05,  avg # of iterations =  4.7

     total cpu time spent up to now is       15.1 secs

     total energy              =    -306.87220099 Ry
     estimated scf accuracy    <       0.00126916 Ry

     iteration #  3     ecut=   100.00 Ry     beta= 0.70
     Davidson diagonalization with overlap
     c_bands:  3 eigenvalues not converged
     c_bands:  1 eigenvalues not converged
     c_bands:  2 eigenvalues not converged
     ethr =  5.77E-06,  avg # of iterations =  8.6

     total cpu time spent up to now is       19.0 secs

     total energy              =    -306.87327352 Ry
     estimated scf accuracy    <       0.00035206 Ry

     iteration #  4     ecut=   100.00 Ry     beta= 0.70
     Davidson diagonalization with overlap
     c_bands:  2 eigenvalues not converged
     ethr =  1.60E-06,  avg # of iterations =  7.1

     total cpu time spent up to now is       22.2 secs

     total energy              =    -306.87346492 Ry
     estimated scf accuracy    <       0.00018126 Ry

     iteration #  5     ecut=   100.00 Ry     beta= 0.70
     Davidson diagonalization with overlap
     c_bands:  2 eigenvalues not converged
     ethr =  8.24E-07,  avg # of iterations =  5.9

     total cpu time spent up to now is       25.0 secs

     total energy              =    -306.87354634 Ry
     estimated scf accuracy    <       0.00001228 Ry

     iteration #  6     ecut=   100.00 Ry     beta= 0.70
     Davidson diagonalization with overlap
     c_bands:  1 eigenvalues not converged
     ethr =  5.58E-08,  avg # of iterations = 10.5

     total cpu time spent up to now is       29.0 secs

     total energy              =    -306.87355594 Ry
     estimated scf accuracy    <       0.00002001 Ry

     iteration #  7     ecut=   100.00 Ry     beta= 0.70
     Davidson diagonalization with overlap
     ethr =  5.58E-08,  avg # of iterations =  4.5

     total cpu time spent up to now is       31.4 secs

     total energy              =    -306.87355825 Ry
     estimated scf accuracy    <       0.00000112 Ry

     iteration #  8     ecut=   100.00 Ry     beta= 0.70
     Davidson diagonalization with overlap
     ethr =  5.11E-09,  avg # of iterations = 12.1

     total cpu time spent up to now is       35.9 secs

     total energy              =    -306.87356075 Ry
     estimated scf accuracy    <       0.00000230 Ry

     iteration #  9     ecut=   100.00 Ry     beta= 0.70
     Davidson diagonalization with overlap
     ethr =  5.11E-09,  avg # of iterations =  1.8

     total cpu time spent up to now is       37.8 secs

     total energy              =    -306.87356038 Ry
     estimated scf accuracy    <       0.00000087 Ry

     iteration # 10     ecut=   100.00 Ry     beta= 0.70
     Davidson diagonalization with overlap
     ethr =  3.97E-09,  avg # of iterations =  4.8

     total cpu time spent up to now is       40.2 secs

     End of self-consistent calculation

          k = 0.0000 0.0000 0.0000 (  5683 PWs)   bands (ev):

   -40.1391 -40.0748 -19.2242 -18.8907 -18.8907 -18.8323 -18.8323 -18.8153
     3.7531   7.1392   9.3006  10.3501  10.3501  10.4603  10.7538

          k = 0.0000 0.0000 0.0784 (  5677 PWs)   bands (ev):

   -40.1367 -40.0773 -19.2092 -18.8885 -18.8885 -18.8345 -18.8345 -18.8314
     3.8543   6.9860   9.2698  10.3073  10.3074  10.3962  10.6982

          k = 0.0000 0.0000 0.1568 (  5666 PWs)   bands (ev):

   -40.1298 -40.0843 -19.1661 -18.8822 -18.8822 -18.8770 -18.8409 -18.8409
     4.1513   6.5411   9.2772  10.2123  10.2449  10.2450  10.5633

          k = 0.0000 0.0000 0.2353 (  5690 PWs)   bands (ev):

   -40.1194 -40.0947 -19.1010 -18.9445 -18.8727 -18.8727 -18.8504 -18.8504
     4.6230   5.9063   9.4172   9.9498  10.2329  10.2330  10.4108

          k = 0.0000 0.0000-0.3137 (  5672 PWs)   bands (ev):

   -40.1071 -40.1071 -19.0232 -19.0232 -18.8616 -18.8616 -18.8616 -18.8616
     5.2301   5.2301   9.6629   9.6629  10.2910  10.2910  10.2910

          k = 0.0000 0.0962 0.0000 (  5689 PWs)   bands (ev):

   -40.1358 -40.0734 -19.2154 -18.9090 -18.8968 -18.8514 -18.8349 -18.8190
     3.9044   7.2692   9.1757  10.0808  10.4596  10.6326  10.6908

          k = 0.0000 0.0962 0.0784 (  5671 PWs)   bands (ev):

   -40.1334 -40.0758 -19.2013 -18.9063 -18.8944 -18.8594 -18.8373 -18.8287
     4.0041   7.1155   9.1476  10.0769  10.4050  10.5026  10.6289

          k = 0.0000 0.0962 0.1568 (  5677 PWs)   bands (ev):

   -40.1267 -40.0826 -19.1608 -18.8994 -18.8928 -18.8878 -18.8450 -18.8440
     4.2969   6.6684   9.1698  10.0827  10.2315  10.3317  10.6466

          k = 0.0000 0.0962 0.2353 (  5667 PWs)   bands (ev):

   -40.1166 -40.0928 -19.0997 -18.9541 -18.8871 -18.8777 -18.8592 -18.8541
     4.7624   6.0340   9.3303   9.9165  10.1295  10.3171  10.3757

          k = 0.0000 0.0962-0.3137 (  5650 PWs)   bands (ev):

   -40.1047 -40.1047 -19.0271 -19.0271 -18.8735 -18.8735 -18.8659 -18.8659
     5.3628   5.3628   9.5987   9.5988  10.2300  10.2304  10.3749

          k = 0.0000 0.1925 0.0000 (  5693 PWs)   bands (ev):

   -40.1266 -40.0699 -19.1902 -18.9591 -18.9129 -18.9025 -18.8424 -18.8303
     4.3436   7.6175   8.8895   9.6698  10.4044  10.7789  10.8105

          k = 0.0000 0.1925 0.0784 (  5683 PWs)   bands (ev):

   -40.1244 -40.0721 -19.1792 -18.9550 -18.9121 -18.9102 -18.8451 -18.8366
     4.4385   7.4641   8.8730   9.6890  10.3956  10.5407  10.6278

          k = 0.0000 0.1925 0.1568 (  5681 PWs)   bands (ev):

   -40.1183 -40.0782 -19.1476 -18.9484 -18.9353 -18.9026 -18.8530 -18.8528
     4.7174   7.0136   8.9338   9.7458  10.1701  10.4044  10.5369

          k = 0.0000 0.1925 0.2353 (  5680 PWs)   bands (ev):

   -40.1091 -40.0875 -19.1001 -18.9889 -18.9217 -18.8912 -18.8751 -18.8643
     5.1617   6.3874   9.1351   9.7341   9.9535  10.2560  10.5303

          k = 0.0000 0.1925-0.3137 (  5686 PWs)   bands (ev):

   -40.0983 -40.0983 -19.0442 -19.0442 -18.8991 -18.8991 -18.8777 -18.8777
     5.7375   5.7375   9.4312   9.4313  10.0750  10.0751  10.6015

          k = 0.0000 0.2887 0.0000 (  5673 PWs)   bands (ev):

   -40.1134 -40.0656 -19.1524 -19.0283 -18.9703 -18.9340 -18.8534 -18.8490
     5.0251   8.0244   8.5815   9.2454  10.1849  10.4657  10.5658

          k = 0.0000 0.2887 0.0784 (  5688 PWs)   bands (ev):

   -40.1116 -40.0674 -19.1490 -19.0196 -18.9795 -18.9310 -18.8565 -18.8523
     5.1103   7.8763   8.5923   9.2761  10.1572  10.4060  10.5789

          k = 0.0000 0.2887 0.1568 (  5690 PWs)   bands (ev):

   -40.1064 -40.0726 -19.1371 -19.0154 -18.9846 -18.9223 -18.8653 -18.8639
     5.3607   7.4428   8.7093   9.3526  10.0114  10.2952  10.6286

          k = 0.0000 0.2887 0.2353 (  5686 PWs)   bands (ev):

   -40.0987 -40.0804 -19.1152 -19.0478 -18.9529 -18.9093 -18.8859 -18.8784
     5.7597   6.8652   8.9360   9.3900   9.8525  10.1253  10.7292

          k = 0.0000 0.2887-0.3137 (  5686 PWs)   bands (ev):

   -40.0895 -40.0895 -19.0840 -19.0840 -18.9170 -18.9170 -18.8939 -18.8939
     6.2775   6.2775   9.2083   9.2083   9.9278   9.9279  10.8820

          k = 0.0000 0.3849 0.0000 (  5687 PWs)   bands (ev):

   -40.0992 -40.0623 -19.1080 -19.0981 -19.0360 -18.9545 -18.8742 -18.8649
     5.8644   8.1837   8.3319   8.9108  10.2106  10.2186  10.3535

          k = 0.0000 0.3849 0.0784 (  5689 PWs)   bands (ev):

   -40.0978 -40.0637 -19.1345 -19.0672 -19.0404 -18.9511 -18.8742 -18.8684
     5.9314   8.0423   8.4009   8.9524  10.0658  10.2974  10.4030

          k = 0.0000 0.3849 0.1568 (  5699 PWs)   bands (ev):

   -40.0938 -40.0677 -19.1511 -19.0798 -19.0069 -18.9415 -18.8784 -18.8781
     6.1276   7.7097   8.5618   9.0405   9.9202  10.2471  10.5481

          k = 0.0000 0.3849 0.2353 (  5710 PWs)   bands (ev):

   -40.0878 -40.0737 -19.1515 -19.1102 -18.9611 -18.9270 -18.8933 -18.8927
     6.4381   7.2807   8.7846   9.0941   9.8330  10.0781  10.7783

          k = 0.0000 0.3849-0.3137 (  5704 PWs)   bands (ev):

   -40.0807 -40.0807 -19.1366 -19.1366 -18.9215 -18.9215 -18.9099 -18.9099
     6.8364   6.8364   9.0007   9.0007   9.8947   9.8947  11.0732

          k = 0.0000 0.4811 0.0000 (  5716 PWs)   bands (ev):

   -40.0874 -40.0612 -19.1494 -19.0829 -19.0668 -18.9692 -18.9014 -18.8736
     6.7155   8.0180   8.1747   8.6613  10.0481  10.2122  10.4242

          k = 0.0000 0.4811 0.0784 (  5702 PWs)   bands (ev):

   -40.0864 -40.0622 -19.1635 -19.0968 -19.0420 -18.9656 -18.8980 -18.8773
     6.7471   7.9222   8.2737   8.6916  10.0534  10.2742  10.3779

          k = 0.0000 0.4811 0.1568 (  5699 PWs)   bands (ev):

   -40.0836 -40.0650 -19.1822 -19.1253 -18.9979 -18.9553 -18.8942 -18.8877
     6.8435   7.7267   8.4670   8.7884  10.0406  10.2551  10.4569

          k = 0.0000 0.4811 0.2353 (  5709 PWs)   bands (ev):

   -40.0793 -40.0693 -19.1884 -19.1560 -18.9545 -18.9399 -18.9033 -18.9001
     7.0053   7.4783   8.6980   8.8988   9.9838  10.1054  10.7502

          k = 0.0000 0.4811-0.3137 (  5706 PWs)   bands (ev):

   -40.0743 -40.0743 -19.1790 -19.1790 -18.9216 -18.9216 -18.9204 -18.9204
     7.2246   7.2246   8.8813   8.8813   9.9873   9.9876  11.1345

          k = 0.0000-0.5774 0.0000 (  5712 PWs)   bands (ev):

   -40.0824 -40.0614 -19.1681 -19.0999 -19.0474 -18.9745 -18.9156 -18.8768
     7.2298   7.7824   8.1214   8.5461   9.9873  10.1628  10.5234

          k = 0.0000-0.5774 0.0784 (  5716 PWs)   bands (ev):

   -40.0816 -40.0622 -19.1793 -19.1126 -19.0285 -18.9709 -18.9104 -18.8805
     7.2093   7.7594   8.2326   8.5433  10.0424  10.2283  10.4523

          k = 0.0000-0.5774 0.1568 (  5702 PWs)   bands (ev):

   -40.0794 -40.0645 -19.1965 -19.1417 -18.9892 -18.9604 -18.9025 -18.8912
     7.1941   7.6666   8.4958   8.5943  10.1384  10.2727  10.4215

          k = 0.0000-0.5774 0.2353 (  5698 PWs)   bands (ev):

   -40.0760 -40.0679 -19.2033 -19.1726 -18.9495 -18.9446 -18.9072 -18.9036
     7.2376   7.5100   8.7323   8.7644  10.0902  10.1457  10.7326

          k = 0.0000-0.5774-0.3137 (  5732 PWs)   bands (ev):

   -40.0719 -40.0719 -19.1949 -19.1949 -18.9259 -18.9259 -18.9194 -18.9194
     7.3503   7.3503   8.8500   8.8500  10.0614  10.0620  11.1429

          k = 0.0833 0.1443 0.0000 (  5696 PWs)   bands (ev):

   -40.1295 -40.0710 -19.1984 -18.9396 -18.9159 -18.8794 -18.8425 -18.8265
     4.1999   7.5106   8.9751   9.7815  10.4849  10.6889  10.7594

          k = 0.0833 0.1443 0.0784 (  5681 PWs)   bands (ev):

   -40.1273 -40.0732 -19.1862 -18.9360 -18.9153 -18.8874 -18.8450 -18.8332
     4.2965   7.3567   8.9541   9.7965  10.4934  10.5083  10.5828

          k = 0.0833 0.1443 0.1568 (  5692 PWs)   bands (ev):

   -40.1210 -40.0796 -19.1514 -18.9292 -18.9255 -18.8974 -18.8523 -18.8491
     4.5803   6.9063   9.0022   9.8449  10.1964  10.4332  10.4905

          k = 0.0833 0.1443 0.2353 (  5671 PWs)   bands (ev):

   -40.1115 -40.0891 -19.0991 -18.9765 -18.9099 -18.8907 -18.8677 -18.8630
     5.0323   6.2757   9.1930   9.8101   9.9867  10.2854  10.4769

          k = 0.0833 0.1443-0.3137 (  5672 PWs)   bands (ev):

   -40.1003 -40.1003 -19.0374 -19.0374 -18.8922 -18.8922 -18.8742 -18.8742
     5.6172   5.6172   9.4857   9.4858  10.1156  10.1158  10.5322

          k = 0.0833 0.2406 0.0000 (  5684 PWs)   bands (ev):

   -40.1183 -40.0671 -19.1668 -18.9946 -18.9609 -18.9135 -18.8554 -18.8416
     4.7623   7.9078   8.6961   9.3706  10.2555  10.4606  10.7522

          k = 0.0833 0.2406 0.0784 (  5687 PWs)   bands (ev):

   -40.1164 -40.0690 -19.1596 -18.9887 -18.9649 -18.9167 -18.8585 -18.8449
     4.8519   7.7561   8.6918   9.3983  10.2645  10.3819  10.6759

          k = 0.0833 0.2406 0.1568 (  5690 PWs)   bands (ev):

   -40.1108 -40.0746 -19.1385 -18.9894 -18.9657 -18.9175 -18.8673 -18.8560
     5.1152   7.3072   8.7864   9.4736  10.0852  10.3008  10.6258

          k = 0.0833 0.2406 0.2353 (  5700 PWs)   bands (ev):

   -40.1026 -40.0829 -19.1059 -19.0237 -18.9409 -18.9108 -18.8805 -18.8737
     5.5350   6.7001   9.0091   9.5176   9.8705  10.1406  10.6777

          k = 0.0833 0.2406-0.3137 (  5700 PWs)   bands (ev):

   -40.0928 -40.0928 -19.0656 -19.0656 -18.9147 -18.9147 -18.8877 -18.8877
     6.0804   6.0804   9.2997   9.2997   9.9456   9.9459  10.7834

          k = 0.0833 0.3368 0.0000 (  5687 PWs)   bands (ev):

   -40.1046 -40.0633 -19.1254 -19.0628 -19.0156 -18.9450 -18.8693 -18.8639
     5.5301   8.2261   8.4405   8.9950  10.1516  10.2047  10.5099

          k = 0.0833 0.3368 0.0784 (  5693 PWs)   bands (ev):

   -40.1030 -40.0649 -19.1323 -19.0490 -19.0191 -18.9449 -18.8741 -18.8628
     5.6065   8.0777   8.4825   9.0327  10.0612  10.2714  10.4926

          k = 0.0833 0.3368 0.1568 (  5696 PWs)   bands (ev):

   -40.0985 -40.0694 -19.1377 -19.0545 -18.9987 -18.9402 -18.8847 -18.8666
     5.8309   7.6810   8.6303   9.1227   9.9184  10.2207  10.5625

          k = 0.0833 0.3368 0.2353 (  5702 PWs)   bands (ev):

   -40.0919 -40.0761 -19.1309 -19.0831 -18.9606 -18.9294 -18.8986 -18.8801
     6.1875   7.1693   8.8561   9.1950   9.7844  10.0280  10.7525

          k = 0.0833 0.3368-0.3137 (  5706 PWs)   bands (ev):

   -40.0840 -40.0840 -19.1114 -19.1114 -18.9308 -18.9308 -18.8993 -18.8993
     6.6485   6.6485   9.0924   9.0924   9.8293   9.8293  10.9896

          k = 0.0833 0.4330 0.0000 (  5710 PWs)   bands (ev):

   -40.0914 -40.0613 -19.1231 -19.0814 -19.0634 -18.9695 -18.8913 -18.8812
     6.3936   8.1980   8.2570   8.7309  10.0369  10.2775  10.3216

          k = 0.0833 0.4330 0.0784 (  5701 PWs)   bands (ev):

   -40.0902 -40.0624 -19.1422 -19.0815 -19.0459 -18.9669 -18.8927 -18.8805
     6.4458   8.0659   8.3508   8.7820   9.9857  10.2613  10.3648

          k = 0.0833 0.4330 0.1568 (  5695 PWs)   bands (ev):

   -40.0870 -40.0657 -19.1621 -19.1056 -19.0042 -18.9567 -18.9016 -18.8793
     6.5986   7.8126   8.5199   8.8949   9.8824  10.1544  10.5176

          k = 0.0833 0.4330 0.2353 (  5711 PWs)   bands (ev):

   -40.0821 -40.0706 -19.1676 -19.1346 -18.9679 -18.9384 -18.9146 -18.8861
     6.8400   7.4887   8.7437   8.9887   9.7953   9.9684  10.7687

          k = 0.0833 0.4330-0.3137 (  5718 PWs)   bands (ev):

   -40.0763 -40.0763 -19.1574 -19.1574 -18.9431 -18.9431 -18.9040 -18.9040
     7.1483   7.1483   8.9427   8.9427   9.8128   9.8129  11.0943

          k = 0.0833 0.5292 0.0000 (  5708 PWs)   bands (ev):

   -40.0825 -40.0614 -19.1580 -19.0910 -19.0478 -18.9829 -18.9153 -18.8881
     7.1519   7.9460   8.1630   8.5447   9.9714  10.1214  10.5186

          k = 0.0833 0.5292 0.0784 (  5707 PWs)   bands (ev):

   -40.0817 -40.0622 -19.1691 -19.1042 -19.0304 -18.9774 -18.9123 -18.8893
     7.1566   7.8946   8.2653   8.5667   9.9869  10.1286  10.5056

          k = 0.0833 0.5292 0.1568 (  5700 PWs)   bands (ev):

   -40.0794 -40.0645 -19.1863 -19.1332 -18.9995 -18.9593 -18.9152 -18.8887
     7.1882   7.7693   8.4844   8.6718   9.9877  10.0675  10.5780

          k = 0.0833 0.5292 0.2353 (  5704 PWs)   bands (ev):

   -40.0760 -40.0679 -19.1933 -19.1636 -18.9733 -18.9346 -18.9260 -18.8907
     7.2721   7.5931   8.7228   8.8463   9.8811   9.9531  10.8211

          k = 0.0833 0.5292-0.3137 (  5708 PWs)   bands (ev):

   -40.0719 -40.0719 -19.1854 -19.1854 -18.9508 -18.9508 -18.9044 -18.9044
     7.4135   7.4135   8.8913   8.8913   9.8448   9.8449  11.1716

          k = 0.1667 0.2887 0.0000 (  5694 PWs)   bands (ev):

   -40.1065 -40.0637 -19.1314 -19.0327 -19.0250 -18.9337 -18.8790 -18.8604
     5.4164   8.2628   8.4954   8.9989  10.1420  10.1602  10.5987

          k = 0.1667 0.2887 0.0784 (  5692 PWs)   bands (ev):

   -40.1049 -40.0654 -19.1333 -19.0292 -19.0195 -18.9389 -18.8820 -18.8597
     5.4961   8.1095   8.5249   9.0326  10.1099  10.1912  10.5442

          k = 0.1667 0.2887 0.1568 (  5707 PWs)   bands (ev):

   -40.1003 -40.0700 -19.1322 -19.0446 -18.9883 -18.9446 -18.8901 -18.8631
     5.7301   7.6827   8.6669   9.1254   9.9604  10.1818  10.5358

          k = 0.1667 0.2887 0.2353 (  5711 PWs)   bands (ev):

   -40.0933 -40.0770 -19.1212 -19.0710 -18.9540 -18.9415 -18.8995 -18.8763
     6.1029   7.1366   8.8946   9.2231   9.7774   9.9867  10.7097

          k = 0.1667 0.2887-0.3137 (  5704 PWs)   bands (ev):

   -40.0851 -40.0851 -19.0993 -19.0993 -18.9369 -18.9369 -18.8956 -18.8956
     6.5866   6.5866   9.1383   9.1383   9.7857   9.7858  10.9334

          k = 0.1667 0.3849 0.0000 (  5703 PWs)   bands (ev):

   -40.0936 -40.0614 -19.0893 -19.0885 -19.0595 -18.9662 -18.9015 -18.8860
     6.2278   8.3437   8.4187   8.6998   9.9479  10.2286  10.3571

          k = 0.1667 0.3849 0.0784 (  5699 PWs)   bands (ev):

   -40.0924 -40.0627 -19.1189 -19.0795 -19.0356 -18.9709 -18.9057 -18.8803
     6.2910   8.2247   8.4783   8.7451   9.9116  10.2523  10.3067

          k = 0.1667 0.3849 0.1568 (  5713 PWs)   bands (ev):

   -40.0889 -40.0662 -19.1393 -19.0935 -18.9973 -18.9718 -18.9142 -18.8746
     6.4759   7.9365   8.6233   8.8541   9.8158  10.0733  10.4322

          k = 0.1667 0.3849 0.2353 (  5707 PWs)   bands (ev):

   -40.0837 -40.0714 -19.1449 -19.1158 -18.9765 -18.9577 -18.9161 -18.8795
     6.7677   7.5497   8.8255   8.9798   9.6877   9.8303  10.6655

          k = 0.1667 0.3849-0.3137 (  5708 PWs)   bands (ev):

   -40.0775 -40.0775 -19.1357 -19.1357 -18.9627 -18.9627 -18.8968 -18.8968
     7.1397   7.1397   8.9944   8.9944   9.6568   9.6569  10.9744

          k = 0.1667 0.4811 0.0000 (  5719 PWs)   bands (ev):

   -40.0826 -40.0613 -19.1315 -19.0758 -19.0484 -18.9976 -18.9165 -18.9146
     7.0539   8.2452   8.2561   8.5329   9.8645  10.1066  10.4866

          k = 0.1667 0.4811 0.0784 (  5705 PWs)   bands (ev):

   -40.0817 -40.0621 -19.1420 -19.0924 -19.0305 -18.9922 -18.9256 -18.9015
     7.0891   8.1448   8.3472   8.6043   9.8368  10.0436  10.5049

          k = 0.1667 0.4811 0.1568 (  5704 PWs)   bands (ev):

   -40.0794 -40.0644 -19.1597 -19.1179 -19.0165 -18.9674 -18.9342 -18.8879
     7.1925   7.9877   8.5092   8.7649   9.7478   9.8691  10.5927

          k = 0.1667 0.4811 0.2353 (  5707 PWs)   bands (ev):

   -40.0760 -40.0679 -19.1685 -19.1443 -19.0018 -18.9652 -18.9190 -18.8843
     7.3561   7.7852   8.7380   8.9336   9.6187   9.6376  10.7801

          k = 0.1667 0.4811-0.3137 (  5704 PWs)   bands (ev):

   -40.0719 -40.0719 -19.1630 -19.1630 -18.9831 -18.9831 -18.8953 -18.8953
     7.5631   7.5631   8.9470   8.9470   9.5239   9.5239  11.0645

          k = 0.1667 0.5774 0.0000 (  5706 PWs)   bands (ev):

   -40.0776 -40.0622 -19.1470 -19.0801 -19.0277 -19.0110 -18.9309 -18.9219
     7.5564   8.0288   8.2282   8.4379   9.9086   9.9401  10.6148

          k = 0.1667 0.5774 0.0784 (  5700 PWs)   bands (ev):

   -40.0770 -40.0628 -19.1554 -19.0939 -19.0330 -18.9876 -18.9375 -18.9110
     7.5482   8.0158   8.3203   8.4701   9.8723   9.9046  10.6277

          k = 0.1667 0.5774 0.1568 (  5709 PWs)   bands (ev):

   -40.0753 -40.0645 -19.1705 -19.1238 -19.0271 -18.9508 -18.9505 -18.8948
     7.5547   7.9541   8.5517   8.5904   9.7657   9.7722  10.7055

          k = 0.1667 0.5774 0.2353 (  5704 PWs)   bands (ev):

   -40.0728 -40.0669 -19.1786 -19.1534 -19.0114 -18.9694 -18.9168 -18.8872
     7.6093   7.8403   8.7974   8.8351   9.5534   9.5939  10.8841

          k = 0.1667 0.5774-0.3137 (  5696 PWs)   bands (ev):

   -40.0699 -40.0699 -19.1731 -19.1731 -18.9908 -18.9908 -18.8944 -18.8944
     7.7123   7.7123   8.9775   8.9775   9.4317   9.4317  11.1536

          k = 0.2500 0.4330 0.0000 (  5702 PWs)   bands (ev):

   -40.0826 -40.0613 -19.1087 -19.0790 -19.0488 -18.9970 -18.9374 -18.9143
     7.0182   8.3090   8.4409   8.4815   9.7885  10.1167  10.4533

          k = 0.2500 0.4330 0.0784 (  5705 PWs)   bands (ev):

   -40.0818 -40.0621 -19.1107 -19.1071 -19.0165 -19.0072 -18.9398 -18.9036
     7.0650   8.2470   8.4780   8.5577   9.7725  10.0123  10.4634

          k = 0.2500 0.4330 0.1568 (  5713 PWs)   bands (ev):

   -40.0795 -40.0644 -19.1355 -19.1200 -19.0183 -18.9834 -18.9393 -18.8879
     7.2001   8.1093   8.5876   8.7162   9.7059   9.7689  10.5202

          k = 0.2500 0.4330 0.2353 (  5725 PWs)   bands (ev):

   -40.0760 -40.0679 -19.1499 -19.1362 -19.0145 -18.9845 -18.9162 -18.8825
     7.4069   7.9051   8.7577   8.8928   9.5112   9.5699  10.6795

          k = 0.2500 0.4330-0.3137 (  5704 PWs)   bands (ev):

   -40.0719 -40.0719 -19.1490 -19.1490 -19.0002 -19.0002 -18.8925 -18.8925
     7.6559   7.6559   8.9259   8.9259   9.4295   9.4296  10.9648

          k = 0.2500 0.5292 0.0000 (  5715 PWs)   bands (ev):

   -40.0742 -40.0633 -19.1239 -19.0678 -19.0317 -19.0125 -18.9602 -18.9435
     7.7094   8.2588   8.3107   8.3762   9.7627   9.8910  10.6776

          k = 0.2500 0.5292 0.0784 (  5716 PWs)   bands (ev):

   -40.0738 -40.0637 -19.1270 -19.0867 -19.0471 -18.9872 -18.9644 -18.9268
     7.7376   8.2315   8.3435   8.4648   9.7224   9.7958  10.6816

          k = 0.2500 0.5292 0.1568 (  5714 PWs)   bands (ev):

   -40.0726 -40.0648 -19.1393 -19.1138 -19.0568 -18.9863 -18.9396 -18.9025
     7.8156   8.1880   8.4675   8.6482   9.5464   9.6083  10.7167

          k = 0.2500 0.5292 0.2353 (  5712 PWs)   bands (ev):

   -40.0708 -40.0666 -19.1516 -19.1378 -19.0468 -19.0051 -18.9080 -18.8881
     7.9247   8.1283   8.6719   8.8859   9.2464   9.4053  10.8308

          k = 0.2500 0.5292-0.3137 (  5712 PWs)   bands (ev):

   -40.0687 -40.0687 -19.1519 -19.1519 -19.0270 -19.0270 -18.8897 -18.8897
     8.0376   8.0376   8.9372   8.9372   9.1552   9.1552  11.0604

          k = 0.3333 0.5774 0.0000 (  5724 PWs)   bands (ev):

   -40.0676 -40.0676 -19.1144 -19.0530 -19.0530 -18.9859 -18.9767 -18.9767
     8.1579   8.1579   8.2617   8.3471   9.7595   9.7595  10.7721

          k = 0.3333 0.5774 0.0784 (  5706 PWs)   bands (ev):

   -40.0676 -40.0676 -19.1096 -19.0745 -19.0745 -18.9908 -18.9549 -18.9549
     8.2036   8.2036   8.2806   8.3658   9.6819   9.6819  10.7708

          k = 0.3333 0.5774 0.1568 (  5697 PWs)   bands (ev):

   -40.0675 -40.0675 -19.1077 -19.1077 -19.0958 -19.0049 -18.9212 -18.9212
     8.3309   8.3340   8.3340   8.4087   9.4815   9.4815  10.7876

          k = 0.3333 0.5774 0.2353 (  5706 PWs)   bands (ev):

   -40.0675 -40.0675 -19.1317 -19.1317 -19.0751 -19.0259 -18.8965 -18.8965
     8.3932   8.4431   8.5217   8.5217   9.2315   9.2315  10.8740

          k = 0.3333 0.5774-0.3137 (  5736 PWs)   bands (ev):

   -40.0675 -40.0675 -19.1402 -19.1402 -19.0506 -19.0506 -18.8877 -18.8877
     8.4387   8.4387   8.6523   8.6523   9.0770   9.0770  11.0783

     the Fermi energy is     8.8142 ev

!    total energy              =    -306.87356070 Ry
     total all-electron energy =     -3050.014331 Ry
     estimated scf accuracy    <          1.5E-09 Ry
     smearing contrib. (-TS)   =      -0.00104019 Ry
     internal energy E=F+TS    =    -306.87252051 Ry

     The total energy is F=E-TS. E is the sum of the following terms:
     one-electron contribution =     -74.40725693 Ry
     hartree contribution      =      42.28499769 Ry
     xc contribution           =     -34.52742565 Ry
     ewald contribution        =    -126.46581261 Ry
     one-center paw contrib.   =    -113.75702301 Ry

     convergence has been achieved in  10 iterations

     Writing all to output data dir sc_rhocut.out/scandium.save/

     init_run     :      1.11s CPU      1.15s WALL (       1 calls)
     electrons    :     37.35s CPU     38.86s WALL (       1 calls)

     Called by init_run:
     wfcinit      :      0.91s CPU      0.93s WALL (       1 calls)
     potinit      :      0.06s CPU      0.06s WALL (       1 calls)
     hinit0       :      0.12s CPU      0.12s WALL (       1 calls)

     Called by electrons:
     c_bands      :     33.64s CPU     35.01s WALL (      11 calls)
     sum_band     :      3.24s CPU      3.33s WALL (      11 calls)
     v_of_rho     :      0.01s CPU      0.01s WALL (      11 calls)
     newd         :      0.14s CPU      0.15s WALL (      11 calls)
     PAW_pot      :      0.33s CPU      0.33s WALL (      11 calls)
     mix_rho      :      0.01s CPU      0.01s WALL (      11 calls)

     Called by c_bands:
     init_us_2    :      0.30s CPU      0.33s WALL (    2185 calls)
     init_us_2:cp :      0.29s CPU      0.32s WALL (    2185 calls)
     cegterg      :     32.90s CPU     33.61s WALL (    1047 calls)

     Called by *egterg:
     cdiaghg      :      2.51s CPU      2.57s WALL (    8499 calls)
     h_psi        :     24.49s CPU     25.07s WALL (    8691 calls)
     s_psi        :      1.30s CPU      1.33s WALL (    8691 calls)
     g_psi        :      0.13s CPU      0.13s WALL (    7549 calls)

     Called by h_psi:
     h_psi:calbec :      1.56s CPU      1.60s WALL (    8691 calls)
     vloc_psi     :     21.54s CPU     22.06s WALL (    8691 calls)
     add_vuspsi   :      1.29s CPU      1.31s WALL (    8691 calls)

     General routines
     calbec       :      1.87s CPU      1.92s WALL (    9736 calls)
     fft          :      0.02s CPU      0.02s WALL (      45 calls)
     ffts         :      0.00s CPU      0.00s WALL (      11 calls)
     fftw         :     22.30s CPU     22.84s WALL (  151245 calls)

     Parallel routines

     PWSCF        :     38.97s CPU     41.00s WALL


   This run was terminated on:  12:15:40  26Jul2023            

=------------------------------------------------------------------------------=
   JOB DONE.
=------------------------------------------------------------------------------=
