
     Program PWSCF v.7.2 starts on 26Jul2023 at 12:13: 5 

     This program is part of the open-source Quantum ESPRESSO suite
     for quantum simulation of materials; please cite
         "P. Giannozzi et al., J. Phys.:Condens. Matter 21 395502 (2009);
         "P. Giannozzi et al., J. Phys.:Condens. Matter 29 465901 (2017);
         "P. Giannozzi et al., J. Chem. Phys. 152 154105 (2020);
          URL http://www.quantum-espresso.org", 
     in publications or presentations arising from this work. More details at
     http://www.quantum-espresso.org/quote

     Parallel version (MPI), running on    20 processors

     MPI processes distributed on     1 nodes
     317686 MiB available memory on the printing compute node when the environment starts

     Waiting for input...
     Reading input from standard input

     Current dimensions of program PWSCF are:
     Max number of different atomic species (ntypx) = 10
     Max number of k-points (npk) = 120000
     Max angular momentum in pseudopotentials (lmaxx) =  4
     file Sc.pz-spn-kjpaw_psl.1.0.0.UPF: wavefunction(s)  3S 3P 3D renormalized

     R & G space division:  proc/nbgrp/npool/nimage =      20
     Subspace diagonalization in iterative solution of the eigenvalue problem:
     a serial algorithm will be used


     Parallelization info
     --------------------
     sticks:   dense  smooth     PW     G-vecs:    dense   smooth      PW
     Min          37      37     11                 1335     1335     211
     Max          38      38     12                 1344     1344     215
     Sum         745     745    223                26741    26741    4259

     Using Slab Decomposition



     bravais-lattice index     =            4
     lattice parameter (alat)  =       6.2531  a.u.
     unit-cell volume          =     337.5249 (a.u.)^3
     number of atoms/cell      =            2
     number of atomic types    =            1
     number of electrons       =        22.00
     number of Kohn-Sham states=           15
     kinetic-energy cutoff     =      70.0000  Ry
     charge density cutoff     =     280.0000  Ry
     scf convergence threshold =      1.0E-08
     mixing beta               =       0.7000
     number of iterations used =            8  plain     mixing
     Exchange-correlation= SLA  PZ   NOGX NOGC
                           (   1   1   0   0   0   0   0)

     celldm(1)=   6.253104  celldm(2)=   0.000000  celldm(3)=   1.594000
     celldm(4)=   0.000000  celldm(5)=   0.000000  celldm(6)=   0.000000

     crystal axes: (cart. coord. in units of alat)
               a(1) = (   1.000000   0.000000   0.000000 )  
               a(2) = (  -0.500000   0.866025   0.000000 )  
               a(3) = (   0.000000   0.000000   1.594000 )  

     reciprocal axes: (cart. coord. in units 2 pi/alat)
               b(1) = (  1.000000  0.577350 -0.000000 )  
               b(2) = (  0.000000  1.154701  0.000000 )  
               b(3) = (  0.000000 -0.000000  0.627353 )  


     PseudoPot. # 1 for Sc read from file:
     ../../Sc.pz-spn-kjpaw_psl.1.0.0.UPF
     MD5 check sum: 1f9095df0bb42a6568b4e9f256ff075f
     Pseudo is Projector augmented-wave + core cor, Zval = 11.0
     Generated using 'atomic' code by A. Dal Corso  v.7.1
     Shape of augmentation charge: PSQ
     Using radial grid of 1173 points,  6 beta functions with: 
                l(1) =   0
                l(2) =   0
                l(3) =   1
                l(4) =   1
                l(5) =   2
                l(6) =   2
     Q(r) pseudized with 0 coefficients 


     atomic species   valence    mass     pseudopotential
        Sc            11.00    44.59600     Sc( 1.00)

     24 Sym. Ops., with inversion, found (12 have fractional translation)



   Cartesian axes

     site n.     atom                  positions (alat units)
         1           Sc  tau(   1) = (   0.0000000   0.0000000   0.0000000  )
         2           Sc  tau(   2) = (   0.5000000   0.2886751   0.7970000  )

     number of k points=    95  Marzari-Vanderbilt smearing, width (Ry)=  0.0200
                       cart. coord. in units 2pi/alat
        k(    1) = (   0.0000000   0.0000000   0.0000000), wk =   0.0017361
        k(    2) = (   0.0000000   0.0000000   0.0784191), wk =   0.0034722
        k(    3) = (   0.0000000   0.0000000   0.1568381), wk =   0.0034722
        k(    4) = (   0.0000000   0.0000000   0.2352572), wk =   0.0034722
        k(    5) = (   0.0000000   0.0000000  -0.3136763), wk =   0.0017361
        k(    6) = (   0.0000000   0.0962250   0.0000000), wk =   0.0104167
        k(    7) = (   0.0000000   0.0962250   0.0784191), wk =   0.0208333
        k(    8) = (   0.0000000   0.0962250   0.1568381), wk =   0.0208333
        k(    9) = (   0.0000000   0.0962250   0.2352572), wk =   0.0208333
        k(   10) = (   0.0000000   0.0962250  -0.3136763), wk =   0.0104167
        k(   11) = (   0.0000000   0.1924501   0.0000000), wk =   0.0104167
        k(   12) = (   0.0000000   0.1924501   0.0784191), wk =   0.0208333
        k(   13) = (   0.0000000   0.1924501   0.1568381), wk =   0.0208333
        k(   14) = (   0.0000000   0.1924501   0.2352572), wk =   0.0208333
        k(   15) = (   0.0000000   0.1924501  -0.3136763), wk =   0.0104167
        k(   16) = (   0.0000000   0.2886751   0.0000000), wk =   0.0104167
        k(   17) = (   0.0000000   0.2886751   0.0784191), wk =   0.0208333
        k(   18) = (   0.0000000   0.2886751   0.1568381), wk =   0.0208333
        k(   19) = (   0.0000000   0.2886751   0.2352572), wk =   0.0208333
        k(   20) = (   0.0000000   0.2886751  -0.3136763), wk =   0.0104167
        k(   21) = (   0.0000000   0.3849002   0.0000000), wk =   0.0104167
        k(   22) = (   0.0000000   0.3849002   0.0784191), wk =   0.0208333
        k(   23) = (   0.0000000   0.3849002   0.1568381), wk =   0.0208333
        k(   24) = (   0.0000000   0.3849002   0.2352572), wk =   0.0208333
        k(   25) = (   0.0000000   0.3849002  -0.3136763), wk =   0.0104167
        k(   26) = (   0.0000000   0.4811252   0.0000000), wk =   0.0104167
        k(   27) = (   0.0000000   0.4811252   0.0784191), wk =   0.0208333
        k(   28) = (   0.0000000   0.4811252   0.1568381), wk =   0.0208333
        k(   29) = (   0.0000000   0.4811252   0.2352572), wk =   0.0208333
        k(   30) = (   0.0000000   0.4811252  -0.3136763), wk =   0.0104167
        k(   31) = (   0.0000000  -0.5773503   0.0000000), wk =   0.0052083
        k(   32) = (   0.0000000  -0.5773503   0.0784191), wk =   0.0104167
        k(   33) = (   0.0000000  -0.5773503   0.1568381), wk =   0.0104167
        k(   34) = (   0.0000000  -0.5773503   0.2352572), wk =   0.0104167
        k(   35) = (   0.0000000  -0.5773503  -0.3136763), wk =   0.0052083
        k(   36) = (   0.0833333   0.1443376   0.0000000), wk =   0.0104167
        k(   37) = (   0.0833333   0.1443376   0.0784191), wk =   0.0208333
        k(   38) = (   0.0833333   0.1443376   0.1568381), wk =   0.0208333
        k(   39) = (   0.0833333   0.1443376   0.2352572), wk =   0.0208333
        k(   40) = (   0.0833333   0.1443376  -0.3136763), wk =   0.0104167
        k(   41) = (   0.0833333   0.2405626   0.0000000), wk =   0.0208333
        k(   42) = (   0.0833333   0.2405626   0.0784191), wk =   0.0416667
        k(   43) = (   0.0833333   0.2405626   0.1568381), wk =   0.0416667
        k(   44) = (   0.0833333   0.2405626   0.2352572), wk =   0.0416667
        k(   45) = (   0.0833333   0.2405626  -0.3136763), wk =   0.0208333
        k(   46) = (   0.0833333   0.3367877   0.0000000), wk =   0.0208333
        k(   47) = (   0.0833333   0.3367877   0.0784191), wk =   0.0416667
        k(   48) = (   0.0833333   0.3367877   0.1568381), wk =   0.0416667
        k(   49) = (   0.0833333   0.3367877   0.2352572), wk =   0.0416667
        k(   50) = (   0.0833333   0.3367877  -0.3136763), wk =   0.0208333
        k(   51) = (   0.0833333   0.4330127   0.0000000), wk =   0.0208333
        k(   52) = (   0.0833333   0.4330127   0.0784191), wk =   0.0416667
        k(   53) = (   0.0833333   0.4330127   0.1568381), wk =   0.0416667
        k(   54) = (   0.0833333   0.4330127   0.2352572), wk =   0.0416667
        k(   55) = (   0.0833333   0.4330127  -0.3136763), wk =   0.0208333
        k(   56) = (   0.0833333   0.5292377   0.0000000), wk =   0.0208333
        k(   57) = (   0.0833333   0.5292377   0.0784191), wk =   0.0416667
        k(   58) = (   0.0833333   0.5292377   0.1568381), wk =   0.0416667
        k(   59) = (   0.0833333   0.5292377   0.2352572), wk =   0.0416667
        k(   60) = (   0.0833333   0.5292377  -0.3136763), wk =   0.0208333
        k(   61) = (   0.1666667   0.2886751   0.0000000), wk =   0.0104167
        k(   62) = (   0.1666667   0.2886751   0.0784191), wk =   0.0208333
        k(   63) = (   0.1666667   0.2886751   0.1568381), wk =   0.0208333
        k(   64) = (   0.1666667   0.2886751   0.2352572), wk =   0.0208333
        k(   65) = (   0.1666667   0.2886751  -0.3136763), wk =   0.0104167
        k(   66) = (   0.1666667   0.3849002   0.0000000), wk =   0.0208333
        k(   67) = (   0.1666667   0.3849002   0.0784191), wk =   0.0416667
        k(   68) = (   0.1666667   0.3849002   0.1568381), wk =   0.0416667
        k(   69) = (   0.1666667   0.3849002   0.2352572), wk =   0.0416667
        k(   70) = (   0.1666667   0.3849002  -0.3136763), wk =   0.0208333
        k(   71) = (   0.1666667   0.4811252   0.0000000), wk =   0.0208333
        k(   72) = (   0.1666667   0.4811252   0.0784191), wk =   0.0416667
        k(   73) = (   0.1666667   0.4811252   0.1568381), wk =   0.0416667
        k(   74) = (   0.1666667   0.4811252   0.2352572), wk =   0.0416667
        k(   75) = (   0.1666667   0.4811252  -0.3136763), wk =   0.0208333
        k(   76) = (   0.1666667   0.5773503   0.0000000), wk =   0.0104167
        k(   77) = (   0.1666667   0.5773503   0.0784191), wk =   0.0208333
        k(   78) = (   0.1666667   0.5773503   0.1568381), wk =   0.0208333
        k(   79) = (   0.1666667   0.5773503   0.2352572), wk =   0.0208333
        k(   80) = (   0.1666667   0.5773503  -0.3136763), wk =   0.0104167
        k(   81) = (   0.2500000   0.4330127   0.0000000), wk =   0.0104167
        k(   82) = (   0.2500000   0.4330127   0.0784191), wk =   0.0208333
        k(   83) = (   0.2500000   0.4330127   0.1568381), wk =   0.0208333
        k(   84) = (   0.2500000   0.4330127   0.2352572), wk =   0.0208333
        k(   85) = (   0.2500000   0.4330127  -0.3136763), wk =   0.0104167
        k(   86) = (   0.2500000   0.5292377   0.0000000), wk =   0.0208333
        k(   87) = (   0.2500000   0.5292377   0.0784191), wk =   0.0416667
        k(   88) = (   0.2500000   0.5292377   0.1568381), wk =   0.0416667
        k(   89) = (   0.2500000   0.5292377   0.2352572), wk =   0.0416667
        k(   90) = (   0.2500000   0.5292377  -0.3136763), wk =   0.0208333
        k(   91) = (   0.3333333   0.5773503   0.0000000), wk =   0.0034722
        k(   92) = (   0.3333333   0.5773503   0.0784191), wk =   0.0069444
        k(   93) = (   0.3333333   0.5773503   0.1568381), wk =   0.0069444
        k(   94) = (   0.3333333   0.5773503   0.2352572), wk =   0.0069444
        k(   95) = (   0.3333333   0.5773503  -0.3136763), wk =   0.0034722

     Dense  grid:    26741 G-vectors     FFT dimensions: (  36,  36,  54)

     Estimated max dynamical RAM per process >       9.76 MB

     Estimated total dynamical RAM >     195.27 MB

     Check: negative core charge=   -0.000035

     Initial potential from superposition of free atoms

     starting charge      21.9956, renormalised to      22.0000
     Starting wfcs are   20 randomized atomic wfcs
     Checking if some PAW data can be deallocated... 

     total cpu time spent up to now is        1.0 secs

     Self-consistent Calculation

     iteration #  1     ecut=    70.00 Ry     beta= 0.70
     Davidson diagonalization with overlap
     ethr =  1.00E-02,  avg # of iterations =  2.2

     Threshold (ethr) on eigenvalues was too large:
     Diagonalizing with lowered threshold

     Davidson diagonalization with overlap
     c_bands:  1 eigenvalues not converged
     c_bands:  1 eigenvalues not converged
     c_bands:  1 eigenvalues not converged
     c_bands:  1 eigenvalues not converged
     c_bands:  2 eigenvalues not converged
     c_bands:  1 eigenvalues not converged
     c_bands:  1 eigenvalues not converged
     c_bands:  2 eigenvalues not converged
     c_bands:  4 eigenvalues not converged
     c_bands:  1 eigenvalues not converged
     c_bands:  2 eigenvalues not converged
     c_bands:  2 eigenvalues not converged
     c_bands:  3 eigenvalues not converged
     c_bands:  2 eigenvalues not converged
     c_bands:  2 eigenvalues not converged
     c_bands:  1 eigenvalues not converged
     c_bands:  1 eigenvalues not converged
     c_bands:  2 eigenvalues not converged
     c_bands:  2 eigenvalues not converged
     c_bands:  2 eigenvalues not converged
     c_bands:  1 eigenvalues not converged
     c_bands:  1 eigenvalues not converged
     c_bands:  2 eigenvalues not converged
     c_bands:  1 eigenvalues not converged
     c_bands:  3 eigenvalues not converged
     c_bands:  4 eigenvalues not converged
     c_bands:  3 eigenvalues not converged
     c_bands:  1 eigenvalues not converged
     c_bands:  1 eigenvalues not converged
     c_bands:  1 eigenvalues not converged
     ethr =  1.59E-05,  avg # of iterations = 17.8

     total cpu time spent up to now is        7.8 secs

     total energy              =    -306.86627036 Ry
     estimated scf accuracy    <       0.02020143 Ry

     iteration #  2     ecut=    70.00 Ry     beta= 0.70
     Davidson diagonalization with overlap
     ethr =  9.18E-05,  avg # of iterations =  4.5

     total cpu time spent up to now is        9.4 secs

     total energy              =    -306.87116200 Ry
     estimated scf accuracy    <       0.00153332 Ry

     iteration #  3     ecut=    70.00 Ry     beta= 0.70
     Davidson diagonalization with overlap
     c_bands:  3 eigenvalues not converged
     c_bands:  1 eigenvalues not converged
     c_bands:  1 eigenvalues not converged
     ethr =  6.97E-06,  avg # of iterations =  8.7

     total cpu time spent up to now is       11.8 secs

     total energy              =    -306.87221415 Ry
     estimated scf accuracy    <       0.00031592 Ry

     iteration #  4     ecut=    70.00 Ry     beta= 0.70
     Davidson diagonalization with overlap
     c_bands:  3 eigenvalues not converged
     c_bands:  1 eigenvalues not converged
     ethr =  1.44E-06,  avg # of iterations =  7.5

     total cpu time spent up to now is       13.9 secs

     total energy              =    -306.87240004 Ry
     estimated scf accuracy    <       0.00015763 Ry

     iteration #  5     ecut=    70.00 Ry     beta= 0.70
     Davidson diagonalization with overlap
     ethr =  7.16E-07,  avg # of iterations =  6.5

     total cpu time spent up to now is       15.7 secs

     total energy              =    -306.87247540 Ry
     estimated scf accuracy    <       0.00001455 Ry

     iteration #  6     ecut=    70.00 Ry     beta= 0.70
     Davidson diagonalization with overlap
     c_bands:  1 eigenvalues not converged
     ethr =  6.61E-08,  avg # of iterations =  8.8

     total cpu time spent up to now is       17.8 secs

     total energy              =    -306.87247634 Ry
     estimated scf accuracy    <       0.00001807 Ry

     iteration #  7     ecut=    70.00 Ry     beta= 0.70
     Davidson diagonalization with overlap
     c_bands:  1 eigenvalues not converged
     ethr =  6.61E-08,  avg # of iterations =  6.2

     total cpu time spent up to now is       19.6 secs

     total energy              =    -306.87248274 Ry
     estimated scf accuracy    <       0.00000174 Ry

     iteration #  8     ecut=    70.00 Ry     beta= 0.70
     Davidson diagonalization with overlap
     ethr =  7.92E-09,  avg # of iterations =  7.6

     total cpu time spent up to now is       21.6 secs

     total energy              =    -306.87248393 Ry
     estimated scf accuracy    <       0.00000010 Ry

     iteration #  9     ecut=    70.00 Ry     beta= 0.70
     Davidson diagonalization with overlap
     c_bands:  1 eigenvalues not converged
     ethr =  4.52E-10,  avg # of iterations = 13.1

     total cpu time spent up to now is       24.7 secs

     total energy              =    -306.87248418 Ry
     estimated scf accuracy    <       0.00000005 Ry

     iteration # 10     ecut=    70.00 Ry     beta= 0.70
     Davidson diagonalization with overlap
     ethr =  2.34E-10,  avg # of iterations =  5.4

     total cpu time spent up to now is       26.3 secs

     End of self-consistent calculation

          k = 0.0000 0.0000 0.0000 (  3381 PWs)   bands (ev):

   -40.1391 -40.0747 -19.2242 -18.8906 -18.8906 -18.8323 -18.8323 -18.8153
     3.7531   7.1408   9.3014  10.3522  10.3523  10.4622  10.7557

          k = 0.0000 0.0000 0.0784 (  3363 PWs)   bands (ev):

   -40.1367 -40.0772 -19.2091 -18.8884 -18.8884 -18.8345 -18.8345 -18.8313
     3.8543   6.9871   9.2703  10.3095  10.3096  10.3972  10.7002

          k = 0.0000 0.0000 0.1568 (  3315 PWs)   bands (ev):

   -40.1297 -40.0842 -19.1660 -18.8821 -18.8821 -18.8768 -18.8408 -18.8408
     4.1513   6.5418   9.2783  10.2149  10.2473  10.2473  10.5656

          k = 0.0000 0.0000 0.2353 (  3320 PWs)   bands (ev):

   -40.1193 -40.0947 -19.1008 -18.9444 -18.8726 -18.8726 -18.8503 -18.8503
     4.6230   5.9066   9.4190   9.9520  10.2353  10.2357  10.4130

          k = 0.0000 0.0000-0.3137 (  3326 PWs)   bands (ev):

   -40.1070 -40.1070 -19.0231 -19.0231 -18.8615 -18.8615 -18.8615 -18.8615
     5.2302   5.2302   9.6651   9.6651  10.2932  10.2932  10.2932

          k = 0.0000 0.0962 0.0000 (  3361 PWs)   bands (ev):

   -40.1358 -40.0734 -19.2154 -18.9089 -18.8967 -18.8513 -18.8349 -18.8190
     3.9043   7.2708   9.1759  10.0830  10.4617  10.6336  10.7115

          k = 0.0000 0.0962 0.0784 (  3360 PWs)   bands (ev):

   -40.1334 -40.0758 -19.2012 -18.9062 -18.8943 -18.8594 -18.8372 -18.8286
     4.0041   7.1167   9.1482  10.0790  10.4072  10.5046  10.6314

          k = 0.0000 0.0962 0.1568 (  3346 PWs)   bands (ev):

   -40.1267 -40.0826 -19.1607 -18.8993 -18.8927 -18.8877 -18.8450 -18.8439
     4.2969   6.6690   9.1710  10.0849  10.2338  10.3340  10.6497

          k = 0.0000 0.0962 0.2353 (  3345 PWs)   bands (ev):

   -40.1166 -40.0927 -19.0996 -18.9540 -18.8871 -18.8777 -18.8591 -18.8540
     4.7624   6.0343   9.3322   9.9187  10.1317  10.3192  10.3795

          k = 0.0000 0.0962-0.3137 (  3338 PWs)   bands (ev):

   -40.1047 -40.1047 -19.0270 -19.0270 -18.8734 -18.8734 -18.8658 -18.8658
     5.3629   5.3629   9.6008   9.6010  10.2322  10.2333  10.3771

          k = 0.0000 0.1925 0.0000 (  3355 PWs)   bands (ev):

   -40.1265 -40.0698 -19.1902 -18.9590 -18.9128 -18.9024 -18.8424 -18.8302
     4.3436   7.6192   8.8903   9.6717  10.4063  10.7808  10.8125

          k = 0.0000 0.1925 0.0784 (  3354 PWs)   bands (ev):

   -40.1244 -40.0720 -19.1791 -18.9549 -18.9120 -18.9101 -18.8451 -18.8365
     4.4385   7.4653   8.8741   9.6911  10.3974  10.5427  10.6295

          k = 0.0000 0.1925 0.1568 (  3354 PWs)   bands (ev):

   -40.1183 -40.0782 -19.1475 -18.9483 -18.9352 -18.9025 -18.8530 -18.8527
     4.7174   7.0142   8.9355   9.7479  10.1723  10.4061  10.5386

          k = 0.0000 0.1925 0.2353 (  3349 PWs)   bands (ev):

   -40.1091 -40.0874 -19.1001 -18.9888 -18.9216 -18.8911 -18.8751 -18.8642
     5.1618   6.3877   9.1372   9.7362   9.9556  10.2580  10.5325

          k = 0.0000 0.1925-0.3137 (  3340 PWs)   bands (ev):

   -40.0983 -40.0983 -19.0441 -19.0441 -18.8990 -18.8990 -18.8777 -18.8777
     5.7377   5.7377   9.4335   9.4335  10.0770  10.0771  10.6036

          k = 0.0000 0.2887 0.0000 (  3328 PWs)   bands (ev):

   -40.1133 -40.0655 -19.1523 -19.0282 -18.9702 -18.9340 -18.8533 -18.8489
     5.0252   8.0262   8.5828   9.2475  10.1869  10.4678  10.5680

          k = 0.0000 0.2887 0.0784 (  3329 PWs)   bands (ev):

   -40.1115 -40.0673 -19.1489 -19.0195 -18.9794 -18.9309 -18.8564 -18.8522
     5.1104   7.8776   8.5939   9.2782  10.1594  10.4080  10.5812

          k = 0.0000 0.2887 0.1568 (  3345 PWs)   bands (ev):

   -40.1064 -40.0726 -19.1371 -19.0153 -18.9845 -18.9222 -18.8652 -18.8639
     5.3608   7.4435   8.7114   9.3546  10.0135  10.2969  10.6307

          k = 0.0000 0.2887 0.2353 (  3344 PWs)   bands (ev):

   -40.0986 -40.0803 -19.1151 -19.0477 -18.9529 -18.9092 -18.8858 -18.8783
     5.7599   6.8656   8.9382   9.3921   9.8546  10.1271  10.7313

          k = 0.0000 0.2887-0.3137 (  3340 PWs)   bands (ev):

   -40.0895 -40.0895 -19.0839 -19.0839 -18.9169 -18.9169 -18.8938 -18.8938
     6.2778   6.2778   9.2105   9.2105   9.9298   9.9299  10.8841

          k = 0.0000 0.3849 0.0000 (  3326 PWs)   bands (ev):

   -40.0991 -40.0622 -19.1080 -19.0979 -19.0359 -18.9545 -18.8741 -18.8648
     5.8647   8.1855   8.3336   8.9126  10.2125  10.2206  10.3559

          k = 0.0000 0.3849 0.0784 (  3331 PWs)   bands (ev):

   -40.0977 -40.0636 -19.1344 -19.0671 -19.0403 -18.9511 -18.8741 -18.8683
     5.9317   8.0439   8.4029   8.9541  10.0677  10.2990  10.4052

          k = 0.0000 0.3849 0.1568 (  3326 PWs)   bands (ev):

   -40.0937 -40.0676 -19.1510 -19.0797 -19.0068 -18.9414 -18.8783 -18.8780
     6.1279   7.7110   8.5639   9.0423   9.9222  10.2488  10.5503

          k = 0.0000 0.3849 0.2353 (  3329 PWs)   bands (ev):

   -40.0877 -40.0736 -19.1514 -19.1101 -18.9610 -18.9270 -18.8932 -18.8927
     6.4386   7.2816   8.7867   9.0959   9.8349  10.0798  10.7804

          k = 0.0000 0.3849-0.3137 (  3338 PWs)   bands (ev):

   -40.0807 -40.0807 -19.1365 -19.1365 -18.9214 -18.9214 -18.9098 -18.9098
     6.8370   6.8370   9.0027   9.0027   9.8964   9.8965  11.0751

          k = 0.0000 0.4811 0.0000 (  3346 PWs)   bands (ev):

   -40.0874 -40.0611 -19.1493 -19.0828 -19.0667 -18.9692 -18.9013 -18.8735
     6.7161   8.0199   8.1766   8.6624  10.0498  10.2145  10.4260

          k = 0.0000 0.4811 0.0784 (  3337 PWs)   bands (ev):

   -40.0863 -40.0621 -19.1634 -19.0967 -19.0419 -18.9656 -18.8979 -18.8771
     6.7478   7.9239   8.2757   8.6929  10.0550  10.2765  10.3797

          k = 0.0000 0.4811 0.1568 (  3338 PWs)   bands (ev):

   -40.0835 -40.0650 -19.1821 -19.1252 -18.9978 -18.9553 -18.8941 -18.8876
     6.8444   7.7283   8.4690   8.7899  10.0418  10.2567  10.4591

          k = 0.0000 0.4811 0.2353 (  3334 PWs)   bands (ev):

   -40.0792 -40.0692 -19.1883 -19.1559 -18.9544 -18.9398 -18.9032 -18.9000
     7.0064   7.4798   8.6999   8.9004   9.9852  10.1068  10.7523

          k = 0.0000 0.4811-0.3137 (  3334 PWs)   bands (ev):

   -40.0742 -40.0742 -19.1789 -19.1789 -18.9216 -18.9216 -18.9203 -18.9203
     7.2259   7.2259   8.8830   8.8830   9.9883   9.9884  11.1364

          k = 0.0000-0.5774 0.0000 (  3326 PWs)   bands (ev):

   -40.0824 -40.0614 -19.1681 -19.0998 -19.0473 -18.9745 -18.9155 -18.8767
     7.2309   7.7840   8.1237   8.5471   9.9890  10.1653  10.5251

          k = 0.0000-0.5774 0.0784 (  3336 PWs)   bands (ev):

   -40.0816 -40.0622 -19.1793 -19.1125 -19.0284 -18.9708 -18.9102 -18.8804
     7.2105   7.7609   8.2345   8.5446  10.0438  10.2306  10.4541

          k = 0.0000-0.5774 0.1568 (  3330 PWs)   bands (ev):

   -40.0793 -40.0645 -19.1964 -19.1417 -18.9891 -18.9603 -18.9024 -18.8911
     7.1956   7.6680   8.4974   8.5960  10.1393  10.2746  10.4237

          k = 0.0000-0.5774 0.2353 (  3338 PWs)   bands (ev):

   -40.0759 -40.0679 -19.2032 -19.1725 -18.9495 -18.9445 -18.9071 -18.9035
     7.2393   7.5114   8.7341   8.7658  10.0918  10.1463  10.7347

          k = 0.0000-0.5774-0.3137 (  3352 PWs)   bands (ev):

   -40.0719 -40.0719 -19.1949 -19.1949 -18.9258 -18.9258 -18.9193 -18.9193
     7.3518   7.3518   8.8517   8.8517  10.0621  10.0621  11.1447

          k = 0.0833 0.1443 0.0000 (  3369 PWs)   bands (ev):

   -40.1295 -40.0709 -19.1984 -18.9396 -18.9158 -18.8794 -18.8424 -18.8264
     4.1999   7.5122   8.9757   9.7834  10.4868  10.6909  10.7615

          k = 0.0833 0.1443 0.0784 (  3357 PWs)   bands (ev):

   -40.1273 -40.0732 -19.1862 -18.9359 -18.9152 -18.8873 -18.8450 -18.8331
     4.2965   7.3579   8.9551   9.7985  10.4954  10.5103  10.5847

          k = 0.0833 0.1443 0.1568 (  3351 PWs)   bands (ev):

   -40.1209 -40.0796 -19.1514 -18.9291 -18.9255 -18.8973 -18.8522 -18.8490
     4.5803   6.9069   9.0038   9.8470  10.1987  10.4354  10.4924

          k = 0.0833 0.1443 0.2353 (  3348 PWs)   bands (ev):

   -40.1115 -40.0891 -19.0991 -18.9764 -18.9098 -18.8906 -18.8676 -18.8629
     5.0323   6.2759   9.1949   9.8123   9.9889  10.2875  10.4782

          k = 0.0833 0.1443-0.3137 (  3340 PWs)   bands (ev):

   -40.1003 -40.1003 -19.0373 -19.0373 -18.8921 -18.8921 -18.8741 -18.8741
     5.6173   5.6173   9.4879   9.4879  10.1176  10.1182  10.5342

          k = 0.0833 0.2406 0.0000 (  3334 PWs)   bands (ev):

   -40.1183 -40.0670 -19.1668 -18.9945 -18.9608 -18.9134 -18.8553 -18.8415
     4.7624   7.9095   8.6972   9.3727  10.2574  10.4630  10.7531

          k = 0.0833 0.2406 0.0784 (  3343 PWs)   bands (ev):

   -40.1163 -40.0690 -19.1595 -18.9886 -18.9648 -18.9166 -18.8585 -18.8448
     4.8519   7.7573   8.6933   9.4003  10.2666  10.3845  10.6785

          k = 0.0833 0.2406 0.1568 (  3347 PWs)   bands (ev):

   -40.1108 -40.0746 -19.1384 -18.9893 -18.9656 -18.9174 -18.8672 -18.8559
     5.1152   7.3079   8.7884   9.4757  10.0875  10.3027  10.6279

          k = 0.0833 0.2406 0.2353 (  3341 PWs)   bands (ev):

   -40.1025 -40.0829 -19.1058 -19.0236 -18.9408 -18.9108 -18.8805 -18.8736
     5.5352   6.7004   9.0113   9.5198   9.8727  10.1425  10.6800

          k = 0.0833 0.2406-0.3137 (  3324 PWs)   bands (ev):

   -40.0927 -40.0927 -19.0655 -19.0655 -18.9146 -18.9146 -18.8876 -18.8876
     6.0807   6.0807   9.3020   9.3020   9.9477   9.9478  10.7854

          k = 0.0833 0.3368 0.0000 (  3331 PWs)   bands (ev):

   -40.1045 -40.0632 -19.1253 -19.0627 -19.0155 -18.9450 -18.8692 -18.8638
     5.5302   8.2280   8.4420   8.9969  10.1535  10.2069  10.5119

          k = 0.0833 0.3368 0.0784 (  3332 PWs)   bands (ev):

   -40.1029 -40.0648 -19.1322 -19.0489 -19.0190 -18.9448 -18.8740 -18.8627
     5.6067   8.0791   8.4844   9.0346  10.0633  10.2732  10.4946

          k = 0.0833 0.3368 0.1568 (  3328 PWs)   bands (ev):

   -40.0985 -40.0693 -19.1376 -19.0544 -18.9986 -18.9401 -18.8846 -18.8665
     5.8311   7.6819   8.6325   9.1247   9.9205  10.2225  10.5647

          k = 0.0833 0.3368 0.2353 (  3338 PWs)   bands (ev):

   -40.0918 -40.0760 -19.1309 -19.0830 -18.9605 -18.9293 -18.8985 -18.8801
     6.1878   7.1699   8.8582   9.1969   9.7865  10.0298  10.7544

          k = 0.0833 0.3368-0.3137 (  3336 PWs)   bands (ev):

   -40.0839 -40.0839 -19.1113 -19.1113 -18.9307 -18.9307 -18.8992 -18.8992
     6.6489   6.6489   9.0945   9.0945   9.8312   9.8313  10.9917

          k = 0.0833 0.4330 0.0000 (  3333 PWs)   bands (ev):

   -40.0913 -40.0612 -19.1230 -19.0813 -19.0633 -18.9694 -18.8912 -18.8811
     6.3940   8.2001   8.2588   8.7324  10.0389  10.2798  10.3235

          k = 0.0833 0.4330 0.0784 (  3332 PWs)   bands (ev):

   -40.0902 -40.0624 -19.1421 -19.0814 -19.0458 -18.9669 -18.8926 -18.8804
     6.4462   8.0676   8.3530   8.7835   9.9876  10.2631  10.3668

          k = 0.0833 0.4330 0.1568 (  3328 PWs)   bands (ev):

   -40.0869 -40.0656 -19.1620 -19.1055 -19.0041 -18.9566 -18.9015 -18.8792
     6.5992   7.8141   8.5221   8.8965   9.8841  10.1561  10.5197

          k = 0.0833 0.4330 0.2353 (  3334 PWs)   bands (ev):

   -40.0820 -40.0705 -19.1675 -19.1345 -18.9678 -18.9383 -18.9145 -18.8860
     6.8408   7.4899   8.7457   8.9903   9.7971   9.9700  10.7705

          k = 0.0833 0.4330-0.3137 (  3344 PWs)   bands (ev):

   -40.0763 -40.0763 -19.1574 -19.1574 -18.9430 -18.9430 -18.9039 -18.9039
     7.1493   7.1493   8.9444   8.9444   9.8144   9.8144  11.0962

          k = 0.0833 0.5292 0.0000 (  3335 PWs)   bands (ev):

   -40.0824 -40.0614 -19.1579 -19.0909 -19.0477 -18.9828 -18.9152 -18.8880
     7.1527   7.9478   8.1653   8.5459   9.9732  10.1238  10.5205

          k = 0.0833 0.5292 0.0784 (  3338 PWs)   bands (ev):

   -40.0816 -40.0622 -19.1691 -19.1042 -19.0303 -18.9773 -18.9122 -18.8892
     7.1576   7.8962   8.2673   8.5680   9.9885  10.1308  10.5073

          k = 0.0833 0.5292 0.1568 (  3337 PWs)   bands (ev):

   -40.0793 -40.0644 -19.1862 -19.1332 -18.9994 -18.9592 -18.9151 -18.8886
     7.1894   7.7709   8.4863   8.6733   9.9890  10.0692  10.5799

          k = 0.0833 0.5292 0.2353 (  3337 PWs)   bands (ev):

   -40.0759 -40.0678 -19.1932 -19.1636 -18.9732 -18.9345 -18.9260 -18.8906
     7.2736   7.5946   8.7247   8.8478   9.8828   9.9540  10.8229

          k = 0.0833 0.5292-0.3137 (  3338 PWs)   bands (ev):

   -40.0719 -40.0719 -19.1853 -19.1853 -18.9507 -18.9507 -18.9044 -18.9044
     7.4151   7.4151   8.8929   8.8929   9.8460   9.8461  11.1733

          k = 0.1667 0.2887 0.0000 (  3336 PWs)   bands (ev):

   -40.1064 -40.0637 -19.1314 -19.0327 -19.0249 -18.9336 -18.8790 -18.8603
     5.4165   8.2646   8.4969   9.0010  10.1439  10.1626  10.6005

          k = 0.1667 0.2887 0.0784 (  3342 PWs)   bands (ev):

   -40.1048 -40.0653 -19.1332 -19.0291 -19.0194 -18.9388 -18.8820 -18.8596
     5.4962   8.1108   8.5268   9.0347  10.1122  10.1931  10.5458

          k = 0.1667 0.2887 0.1568 (  3339 PWs)   bands (ev):

   -40.1002 -40.0700 -19.1322 -19.0445 -18.9882 -18.9445 -18.8901 -18.8630
     5.7303   7.6835   8.6690   9.1276   9.9625  10.1837  10.5379

          k = 0.1667 0.2887 0.2353 (  3331 PWs)   bands (ev):

   -40.0933 -40.0769 -19.1211 -19.0709 -18.9539 -18.9415 -18.8994 -18.8762
     6.1032   7.1372   8.8967   9.2252   9.7797   9.9887  10.7119

          k = 0.1667 0.2887-0.3137 (  3332 PWs)   bands (ev):

   -40.0851 -40.0851 -19.0992 -19.0992 -18.9368 -18.9368 -18.8955 -18.8955
     6.5870   6.5870   9.1404   9.1404   9.7879   9.7879  10.9354

          k = 0.1667 0.3849 0.0000 (  3342 PWs)   bands (ev):

   -40.0935 -40.0614 -19.0892 -19.0884 -19.0595 -18.9661 -18.9014 -18.8859
     6.2281   8.3454   8.4207   8.7016   9.9500  10.2304  10.3590

          k = 0.1667 0.3849 0.0784 (  3328 PWs)   bands (ev):

   -40.0923 -40.0626 -19.1188 -19.0794 -19.0356 -18.9708 -18.9056 -18.8802
     6.2913   8.2264   8.4804   8.7470   9.9138  10.2542  10.3087

          k = 0.1667 0.3849 0.1568 (  3337 PWs)   bands (ev):

   -40.0888 -40.0661 -19.1393 -19.0934 -18.9972 -18.9717 -18.9141 -18.8745
     6.4763   7.9379   8.6254   8.8559   9.8179  10.0752  10.4342

          k = 0.1667 0.3849 0.2353 (  3338 PWs)   bands (ev):

   -40.0836 -40.0713 -19.1448 -19.1157 -18.9764 -18.9576 -18.9160 -18.8794
     6.7682   7.5507   8.8275   8.9816   9.6897   9.8322  10.6674

          k = 0.1667 0.3849-0.3137 (  3332 PWs)   bands (ev):

   -40.0775 -40.0775 -19.1356 -19.1356 -18.9626 -18.9626 -18.8967 -18.8967
     7.1404   7.1404   8.9963   8.9963   9.6588   9.6588  10.9763

          k = 0.1667 0.4811 0.0000 (  3339 PWs)   bands (ev):

   -40.0825 -40.0613 -19.1314 -19.0757 -19.0484 -18.9975 -18.9165 -18.9145
     7.0545   8.2472   8.2582   8.5344   9.8665  10.1086  10.4880

          k = 0.1667 0.4811 0.0784 (  3334 PWs)   bands (ev):

   -40.0817 -40.0621 -19.1419 -19.0923 -19.0304 -18.9921 -18.9255 -18.9014
     7.0898   8.1466   8.3494   8.6059   9.8387  10.0454  10.5066

          k = 0.1667 0.4811 0.1568 (  3335 PWs)   bands (ev):

   -40.0794 -40.0644 -19.1596 -19.1178 -19.0164 -18.9674 -18.9341 -18.8878
     7.1933   7.9894   8.5113   8.7664   9.7495   9.8710  10.5944

          k = 0.1667 0.4811 0.2353 (  3335 PWs)   bands (ev):

   -40.0759 -40.0678 -19.1684 -19.1442 -19.0017 -18.9651 -18.9189 -18.8842
     7.3572   7.7867   8.7399   8.9351   9.6203   9.6395  10.7819

          k = 0.1667 0.4811-0.3137 (  3334 PWs)   bands (ev):

   -40.0719 -40.0719 -19.1629 -19.1629 -18.9830 -18.9830 -18.8952 -18.8952
     7.5644   7.5644   8.9487   8.9487   9.5257   9.5257  11.0662

          k = 0.1667 0.5774 0.0000 (  3320 PWs)   bands (ev):

   -40.0776 -40.0621 -19.1470 -19.0800 -19.0276 -19.0109 -18.9308 -18.9218
     7.5575   8.0302   8.2307   8.4395   9.9103   9.9423  10.6165

          k = 0.1667 0.5774 0.0784 (  3332 PWs)   bands (ev):

   -40.0770 -40.0627 -19.1553 -19.0938 -19.0329 -18.9875 -18.9374 -18.9108
     7.5495   8.0172   8.3223   8.4718   9.8739   9.9067  10.6295

          k = 0.1667 0.5774 0.1568 (  3334 PWs)   bands (ev):

   -40.0753 -40.0644 -19.1705 -19.1237 -19.0270 -18.9507 -18.9504 -18.8947
     7.5562   7.9554   8.5532   8.5923   9.7670   9.7744  10.7072

          k = 0.1667 0.5774 0.2353 (  3339 PWs)   bands (ev):

   -40.0728 -40.0669 -19.1785 -19.1533 -19.0113 -18.9693 -18.9167 -18.8871
     7.6109   7.8418   8.7993   8.8362   9.5555   9.5949  10.8857

          k = 0.1667 0.5774-0.3137 (  3336 PWs)   bands (ev):

   -40.0698 -40.0698 -19.1730 -19.1730 -18.9907 -18.9907 -18.8943 -18.8943
     7.7140   7.7140   8.9790   8.9790   9.4333   9.4333  11.1553

          k = 0.2500 0.4330 0.0000 (  3348 PWs)   bands (ev):

   -40.0825 -40.0612 -19.1086 -19.0789 -19.0487 -18.9969 -18.9374 -18.9142
     7.0187   8.3110   8.4427   8.4834   9.7906  10.1184  10.4550

          k = 0.2500 0.4330 0.0784 (  3335 PWs)   bands (ev):

   -40.0817 -40.0621 -19.1107 -19.1070 -19.0164 -19.0071 -18.9398 -18.9035
     7.0656   8.2490   8.4799   8.5594   9.7745  10.0142  10.4653

          k = 0.2500 0.4330 0.1568 (  3332 PWs)   bands (ev):

   -40.0794 -40.0644 -19.1354 -19.1199 -19.0182 -18.9833 -18.9392 -18.8878
     7.2008   8.1111   8.5894   8.7179   9.7079   9.7708  10.5222

          k = 0.2500 0.4330 0.2353 (  3340 PWs)   bands (ev):

   -40.0760 -40.0678 -19.1498 -19.1361 -19.0144 -18.9844 -18.9161 -18.8824
     7.4077   7.9065   8.7595   8.8943   9.5133   9.5717  10.6816

          k = 0.2500 0.4330-0.3137 (  3344 PWs)   bands (ev):

   -40.0719 -40.0719 -19.1490 -19.1490 -19.0001 -19.0001 -18.8924 -18.8924
     7.6571   7.6571   8.9276   8.9276   9.4315   9.4315  10.9667

          k = 0.2500 0.5292 0.0000 (  3334 PWs)   bands (ev):

   -40.0742 -40.0632 -19.1239 -19.0677 -19.0316 -19.0124 -18.9601 -18.9434
     7.7103   8.2602   8.3131   8.3779   9.7647   9.8929  10.6790

          k = 0.2500 0.5292 0.0784 (  3339 PWs)   bands (ev):

   -40.0737 -40.0636 -19.1269 -19.0866 -19.0470 -18.9871 -18.9644 -18.9267
     7.7386   8.2331   8.3455   8.4666   9.7243   9.7977  10.6833

          k = 0.2500 0.5292 0.1568 (  3337 PWs)   bands (ev):

   -40.0725 -40.0648 -19.1392 -19.1137 -19.0567 -18.9862 -18.9395 -18.9024
     7.8168   8.1897   8.4693   8.6498   9.5480   9.6103  10.7186

          k = 0.2500 0.5292 0.2353 (  3342 PWs)   bands (ev):

   -40.0708 -40.0666 -19.1516 -19.1378 -19.0467 -19.0050 -18.9079 -18.8880
     7.9261   8.1299   8.6736   8.8874   9.2481   9.4071  10.8327

          k = 0.2500 0.5292-0.3137 (  3336 PWs)   bands (ev):

   -40.0687 -40.0687 -19.1518 -19.1518 -19.0269 -19.0269 -18.8895 -18.8895
     8.0393   8.0393   8.9388   8.9388   9.1569   9.1569  11.0624

          k = 0.3333 0.5774 0.0000 (  3360 PWs)   bands (ev):

   -40.0675 -40.0675 -19.1144 -19.0530 -19.0530 -18.9858 -18.9766 -18.9766
     8.1593   8.1593   8.2628   8.3494   9.7613   9.7613  10.7737

          k = 0.3333 0.5774 0.0784 (  3339 PWs)   bands (ev):

   -40.0675 -40.0675 -19.1095 -19.0745 -19.0745 -18.9908 -18.9548 -18.9548
     8.2051   8.2051   8.2819   8.3681   9.6838   9.6838  10.7725

          k = 0.3333 0.5774 0.1568 (  3330 PWs)   bands (ev):

   -40.0675 -40.0675 -19.1076 -19.1076 -19.0957 -19.0048 -18.9211 -18.9211
     8.3322   8.3356   8.3356   8.4108   9.4833   9.4833  10.7895

          k = 0.3333 0.5774 0.2353 (  3327 PWs)   bands (ev):

   -40.0675 -40.0675 -19.1316 -19.1316 -19.0750 -19.0258 -18.8964 -18.8964
     8.3946   8.4449   8.5236   8.5236   9.2331   9.2331  10.8759

          k = 0.3333 0.5774-0.3137 (  3336 PWs)   bands (ev):

   -40.0675 -40.0675 -19.1402 -19.1402 -19.0505 -19.0505 -18.8876 -18.8876
     8.4402   8.4402   8.6544   8.6544   9.0784   9.0784  11.0803

     the Fermi energy is     8.8159 ev

!    total energy              =    -306.87248420 Ry
     total all-electron energy =     -3050.013255 Ry
     estimated scf accuracy    <          2.4E-11 Ry
     smearing contrib. (-TS)   =      -0.00103943 Ry
     internal energy E=F+TS    =    -306.87144476 Ry

     The total energy is F=E-TS. E is the sum of the following terms:
     one-electron contribution =     -74.40516568 Ry
     hartree contribution      =      42.28453999 Ry
     xc contribution           =     -34.52771785 Ry
     ewald contribution        =    -126.46581261 Ry
     one-center paw contrib.   =    -113.75728862 Ry

     convergence has been achieved in  10 iterations

     Writing all to output data dir sc_rhocut.out/scandium.save/

     init_run     :      0.70s CPU      0.73s WALL (       1 calls)
     electrons    :     24.02s CPU     25.38s WALL (       1 calls)

     Called by init_run:
     wfcinit      :      0.53s CPU      0.55s WALL (       1 calls)
     potinit      :      0.05s CPU      0.05s WALL (       1 calls)
     hinit0       :      0.10s CPU      0.10s WALL (       1 calls)

     Called by electrons:
     c_bands      :     21.74s CPU     22.98s WALL (      11 calls)
     sum_band     :      1.86s CPU      1.93s WALL (      11 calls)
     v_of_rho     :      0.01s CPU      0.01s WALL (      11 calls)
     newd         :      0.09s CPU      0.09s WALL (      11 calls)
     PAW_pot      :      0.33s CPU      0.33s WALL (      11 calls)
     mix_rho      :      0.00s CPU      0.01s WALL (      11 calls)

     Called by c_bands:
     init_us_2    :      0.21s CPU      0.22s WALL (    2185 calls)
     init_us_2:cp :      0.20s CPU      0.22s WALL (    2185 calls)
     cegterg      :     21.27s CPU     21.94s WALL (    1046 calls)

     Called by *egterg:
     cdiaghg      :      2.75s CPU      2.83s WALL (    9337 calls)
     h_psi        :     14.27s CPU     14.80s WALL (    9528 calls)
     s_psi        :      0.80s CPU      0.83s WALL (    9528 calls)
     g_psi        :      0.08s CPU      0.08s WALL (    8387 calls)

     Called by h_psi:
     h_psi:calbec :      1.15s CPU      1.19s WALL (    9528 calls)
     vloc_psi     :     12.24s CPU     12.70s WALL (    9528 calls)
     add_vuspsi   :      0.81s CPU      0.83s WALL (    9528 calls)

     General routines
     calbec       :      1.36s CPU      1.41s WALL (   10573 calls)
     fft          :      0.01s CPU      0.01s WALL (      45 calls)
     ffts         :      0.00s CPU      0.00s WALL (      11 calls)
     fftw         :     12.62s CPU     13.08s WALL (  157619 calls)

     Parallel routines

     PWSCF        :     25.17s CPU     26.97s WALL


   This run was terminated on:  12:13:32  26Jul2023            

=------------------------------------------------------------------------------=
   JOB DONE.
=------------------------------------------------------------------------------=
