
     Program PWSCF v.7.2 starts on 26Jul2023 at 12:13:34 

     This program is part of the open-source Quantum ESPRESSO suite
     for quantum simulation of materials; please cite
         "P. Giannozzi et al., J. Phys.:Condens. Matter 21 395502 (2009);
         "P. Giannozzi et al., J. Phys.:Condens. Matter 29 465901 (2017);
         "P. Giannozzi et al., J. Chem. Phys. 152 154105 (2020);
          URL http://www.quantum-espresso.org", 
     in publications or presentations arising from this work. More details at
     http://www.quantum-espresso.org/quote

     Parallel version (MPI), running on    20 processors

     MPI processes distributed on     1 nodes
     317600 MiB available memory on the printing compute node when the environment starts

     Waiting for input...
     Reading input from standard input

     Current dimensions of program PWSCF are:
     Max number of different atomic species (ntypx) = 10
     Max number of k-points (npk) = 120000
     Max angular momentum in pseudopotentials (lmaxx) =  4
     file Sc.pz-spn-kjpaw_psl.1.0.0.UPF: wavefunction(s)  3S 3P 3D renormalized

     R & G space division:  proc/nbgrp/npool/nimage =      20
     Subspace diagonalization in iterative solution of the eigenvalue problem:
     a serial algorithm will be used


     Parallelization info
     --------------------
     sticks:   dense  smooth     PW     G-vecs:    dense   smooth      PW
     Min          42      42     12                 1626     1626     256
     Max          43      43     13                 1637     1637     263
     Sum         859     859    253                32631    32631    5203

     Using Slab Decomposition



     bravais-lattice index     =            4
     lattice parameter (alat)  =       6.2531  a.u.
     unit-cell volume          =     337.5249 (a.u.)^3
     number of atoms/cell      =            2
     number of atomic types    =            1
     number of electrons       =        22.00
     number of Kohn-Sham states=           15
     kinetic-energy cutoff     =      80.0000  Ry
     charge density cutoff     =     320.0000  Ry
     scf convergence threshold =      1.0E-08
     mixing beta               =       0.7000
     number of iterations used =            8  plain     mixing
     Exchange-correlation= SLA  PZ   NOGX NOGC
                           (   1   1   0   0   0   0   0)

     celldm(1)=   6.253104  celldm(2)=   0.000000  celldm(3)=   1.594000
     celldm(4)=   0.000000  celldm(5)=   0.000000  celldm(6)=   0.000000

     crystal axes: (cart. coord. in units of alat)
               a(1) = (   1.000000   0.000000   0.000000 )  
               a(2) = (  -0.500000   0.866025   0.000000 )  
               a(3) = (   0.000000   0.000000   1.594000 )  

     reciprocal axes: (cart. coord. in units 2 pi/alat)
               b(1) = (  1.000000  0.577350 -0.000000 )  
               b(2) = (  0.000000  1.154701  0.000000 )  
               b(3) = (  0.000000 -0.000000  0.627353 )  


     PseudoPot. # 1 for Sc read from file:
     ../../Sc.pz-spn-kjpaw_psl.1.0.0.UPF
     MD5 check sum: 1f9095df0bb42a6568b4e9f256ff075f
     Pseudo is Projector augmented-wave + core cor, Zval = 11.0
     Generated using 'atomic' code by A. Dal Corso  v.7.1
     Shape of augmentation charge: PSQ
     Using radial grid of 1173 points,  6 beta functions with: 
                l(1) =   0
                l(2) =   0
                l(3) =   1
                l(4) =   1
                l(5) =   2
                l(6) =   2
     Q(r) pseudized with 0 coefficients 


     atomic species   valence    mass     pseudopotential
        Sc            11.00    44.59600     Sc( 1.00)

     24 Sym. Ops., with inversion, found (12 have fractional translation)



   Cartesian axes

     site n.     atom                  positions (alat units)
         1           Sc  tau(   1) = (   0.0000000   0.0000000   0.0000000  )
         2           Sc  tau(   2) = (   0.5000000   0.2886751   0.7970000  )

     number of k points=    95  Marzari-Vanderbilt smearing, width (Ry)=  0.0200
                       cart. coord. in units 2pi/alat
        k(    1) = (   0.0000000   0.0000000   0.0000000), wk =   0.0017361
        k(    2) = (   0.0000000   0.0000000   0.0784191), wk =   0.0034722
        k(    3) = (   0.0000000   0.0000000   0.1568381), wk =   0.0034722
        k(    4) = (   0.0000000   0.0000000   0.2352572), wk =   0.0034722
        k(    5) = (   0.0000000   0.0000000  -0.3136763), wk =   0.0017361
        k(    6) = (   0.0000000   0.0962250   0.0000000), wk =   0.0104167
        k(    7) = (   0.0000000   0.0962250   0.0784191), wk =   0.0208333
        k(    8) = (   0.0000000   0.0962250   0.1568381), wk =   0.0208333
        k(    9) = (   0.0000000   0.0962250   0.2352572), wk =   0.0208333
        k(   10) = (   0.0000000   0.0962250  -0.3136763), wk =   0.0104167
        k(   11) = (   0.0000000   0.1924501   0.0000000), wk =   0.0104167
        k(   12) = (   0.0000000   0.1924501   0.0784191), wk =   0.0208333
        k(   13) = (   0.0000000   0.1924501   0.1568381), wk =   0.0208333
        k(   14) = (   0.0000000   0.1924501   0.2352572), wk =   0.0208333
        k(   15) = (   0.0000000   0.1924501  -0.3136763), wk =   0.0104167
        k(   16) = (   0.0000000   0.2886751   0.0000000), wk =   0.0104167
        k(   17) = (   0.0000000   0.2886751   0.0784191), wk =   0.0208333
        k(   18) = (   0.0000000   0.2886751   0.1568381), wk =   0.0208333
        k(   19) = (   0.0000000   0.2886751   0.2352572), wk =   0.0208333
        k(   20) = (   0.0000000   0.2886751  -0.3136763), wk =   0.0104167
        k(   21) = (   0.0000000   0.3849002   0.0000000), wk =   0.0104167
        k(   22) = (   0.0000000   0.3849002   0.0784191), wk =   0.0208333
        k(   23) = (   0.0000000   0.3849002   0.1568381), wk =   0.0208333
        k(   24) = (   0.0000000   0.3849002   0.2352572), wk =   0.0208333
        k(   25) = (   0.0000000   0.3849002  -0.3136763), wk =   0.0104167
        k(   26) = (   0.0000000   0.4811252   0.0000000), wk =   0.0104167
        k(   27) = (   0.0000000   0.4811252   0.0784191), wk =   0.0208333
        k(   28) = (   0.0000000   0.4811252   0.1568381), wk =   0.0208333
        k(   29) = (   0.0000000   0.4811252   0.2352572), wk =   0.0208333
        k(   30) = (   0.0000000   0.4811252  -0.3136763), wk =   0.0104167
        k(   31) = (   0.0000000  -0.5773503   0.0000000), wk =   0.0052083
        k(   32) = (   0.0000000  -0.5773503   0.0784191), wk =   0.0104167
        k(   33) = (   0.0000000  -0.5773503   0.1568381), wk =   0.0104167
        k(   34) = (   0.0000000  -0.5773503   0.2352572), wk =   0.0104167
        k(   35) = (   0.0000000  -0.5773503  -0.3136763), wk =   0.0052083
        k(   36) = (   0.0833333   0.1443376   0.0000000), wk =   0.0104167
        k(   37) = (   0.0833333   0.1443376   0.0784191), wk =   0.0208333
        k(   38) = (   0.0833333   0.1443376   0.1568381), wk =   0.0208333
        k(   39) = (   0.0833333   0.1443376   0.2352572), wk =   0.0208333
        k(   40) = (   0.0833333   0.1443376  -0.3136763), wk =   0.0104167
        k(   41) = (   0.0833333   0.2405626   0.0000000), wk =   0.0208333
        k(   42) = (   0.0833333   0.2405626   0.0784191), wk =   0.0416667
        k(   43) = (   0.0833333   0.2405626   0.1568381), wk =   0.0416667
        k(   44) = (   0.0833333   0.2405626   0.2352572), wk =   0.0416667
        k(   45) = (   0.0833333   0.2405626  -0.3136763), wk =   0.0208333
        k(   46) = (   0.0833333   0.3367877   0.0000000), wk =   0.0208333
        k(   47) = (   0.0833333   0.3367877   0.0784191), wk =   0.0416667
        k(   48) = (   0.0833333   0.3367877   0.1568381), wk =   0.0416667
        k(   49) = (   0.0833333   0.3367877   0.2352572), wk =   0.0416667
        k(   50) = (   0.0833333   0.3367877  -0.3136763), wk =   0.0208333
        k(   51) = (   0.0833333   0.4330127   0.0000000), wk =   0.0208333
        k(   52) = (   0.0833333   0.4330127   0.0784191), wk =   0.0416667
        k(   53) = (   0.0833333   0.4330127   0.1568381), wk =   0.0416667
        k(   54) = (   0.0833333   0.4330127   0.2352572), wk =   0.0416667
        k(   55) = (   0.0833333   0.4330127  -0.3136763), wk =   0.0208333
        k(   56) = (   0.0833333   0.5292377   0.0000000), wk =   0.0208333
        k(   57) = (   0.0833333   0.5292377   0.0784191), wk =   0.0416667
        k(   58) = (   0.0833333   0.5292377   0.1568381), wk =   0.0416667
        k(   59) = (   0.0833333   0.5292377   0.2352572), wk =   0.0416667
        k(   60) = (   0.0833333   0.5292377  -0.3136763), wk =   0.0208333
        k(   61) = (   0.1666667   0.2886751   0.0000000), wk =   0.0104167
        k(   62) = (   0.1666667   0.2886751   0.0784191), wk =   0.0208333
        k(   63) = (   0.1666667   0.2886751   0.1568381), wk =   0.0208333
        k(   64) = (   0.1666667   0.2886751   0.2352572), wk =   0.0208333
        k(   65) = (   0.1666667   0.2886751  -0.3136763), wk =   0.0104167
        k(   66) = (   0.1666667   0.3849002   0.0000000), wk =   0.0208333
        k(   67) = (   0.1666667   0.3849002   0.0784191), wk =   0.0416667
        k(   68) = (   0.1666667   0.3849002   0.1568381), wk =   0.0416667
        k(   69) = (   0.1666667   0.3849002   0.2352572), wk =   0.0416667
        k(   70) = (   0.1666667   0.3849002  -0.3136763), wk =   0.0208333
        k(   71) = (   0.1666667   0.4811252   0.0000000), wk =   0.0208333
        k(   72) = (   0.1666667   0.4811252   0.0784191), wk =   0.0416667
        k(   73) = (   0.1666667   0.4811252   0.1568381), wk =   0.0416667
        k(   74) = (   0.1666667   0.4811252   0.2352572), wk =   0.0416667
        k(   75) = (   0.1666667   0.4811252  -0.3136763), wk =   0.0208333
        k(   76) = (   0.1666667   0.5773503   0.0000000), wk =   0.0104167
        k(   77) = (   0.1666667   0.5773503   0.0784191), wk =   0.0208333
        k(   78) = (   0.1666667   0.5773503   0.1568381), wk =   0.0208333
        k(   79) = (   0.1666667   0.5773503   0.2352572), wk =   0.0208333
        k(   80) = (   0.1666667   0.5773503  -0.3136763), wk =   0.0104167
        k(   81) = (   0.2500000   0.4330127   0.0000000), wk =   0.0104167
        k(   82) = (   0.2500000   0.4330127   0.0784191), wk =   0.0208333
        k(   83) = (   0.2500000   0.4330127   0.1568381), wk =   0.0208333
        k(   84) = (   0.2500000   0.4330127   0.2352572), wk =   0.0208333
        k(   85) = (   0.2500000   0.4330127  -0.3136763), wk =   0.0104167
        k(   86) = (   0.2500000   0.5292377   0.0000000), wk =   0.0208333
        k(   87) = (   0.2500000   0.5292377   0.0784191), wk =   0.0416667
        k(   88) = (   0.2500000   0.5292377   0.1568381), wk =   0.0416667
        k(   89) = (   0.2500000   0.5292377   0.2352572), wk =   0.0416667
        k(   90) = (   0.2500000   0.5292377  -0.3136763), wk =   0.0208333
        k(   91) = (   0.3333333   0.5773503   0.0000000), wk =   0.0034722
        k(   92) = (   0.3333333   0.5773503   0.0784191), wk =   0.0069444
        k(   93) = (   0.3333333   0.5773503   0.1568381), wk =   0.0069444
        k(   94) = (   0.3333333   0.5773503   0.2352572), wk =   0.0069444
        k(   95) = (   0.3333333   0.5773503  -0.3136763), wk =   0.0034722

     Dense  grid:    32631 G-vectors     FFT dimensions: (  36,  36,  60)

     Estimated max dynamical RAM per process >      11.65 MB

     Estimated total dynamical RAM >     233.02 MB

     Check: negative core charge=   -0.000015

     Initial potential from superposition of free atoms

     starting charge      21.9956, renormalised to      22.0000
     Starting wfcs are   20 randomized atomic wfcs
     Checking if some PAW data can be deallocated... 

     total cpu time spent up to now is        1.1 secs

     Self-consistent Calculation

     iteration #  1     ecut=    80.00 Ry     beta= 0.70
     Davidson diagonalization with overlap
     ethr =  1.00E-02,  avg # of iterations =  2.2

     Threshold (ethr) on eigenvalues was too large:
     Diagonalizing with lowered threshold

     Davidson diagonalization with overlap
     c_bands:  1 eigenvalues not converged
     c_bands:  2 eigenvalues not converged
     c_bands:  2 eigenvalues not converged
     c_bands:  1 eigenvalues not converged
     c_bands:  1 eigenvalues not converged
     c_bands:  1 eigenvalues not converged
     c_bands:  1 eigenvalues not converged
     c_bands:  4 eigenvalues not converged
     c_bands:  4 eigenvalues not converged
     c_bands:  1 eigenvalues not converged
     c_bands:  1 eigenvalues not converged
     c_bands:  4 eigenvalues not converged
     c_bands:  4 eigenvalues not converged
     c_bands:  3 eigenvalues not converged
     c_bands:  3 eigenvalues not converged
     c_bands:  2 eigenvalues not converged
     c_bands:  1 eigenvalues not converged
     c_bands:  3 eigenvalues not converged
     c_bands:  3 eigenvalues not converged
     c_bands:  5 eigenvalues not converged
     c_bands:  5 eigenvalues not converged
     c_bands:  1 eigenvalues not converged
     c_bands:  4 eigenvalues not converged
     c_bands:  5 eigenvalues not converged
     c_bands:  3 eigenvalues not converged
     ethr =  1.90E-05,  avg # of iterations = 17.5

     total cpu time spent up to now is        8.6 secs

     total energy              =    -306.86691750 Ry
     estimated scf accuracy    <       0.02019870 Ry

     iteration #  2     ecut=    80.00 Ry     beta= 0.70
     Davidson diagonalization with overlap
     ethr =  9.18E-05,  avg # of iterations =  4.4

     total cpu time spent up to now is       10.3 secs

     total energy              =    -306.87189434 Ry
     estimated scf accuracy    <       0.00150725 Ry

     iteration #  3     ecut=    80.00 Ry     beta= 0.70
     Davidson diagonalization with overlap
     c_bands:  1 eigenvalues not converged
     ethr =  6.85E-06,  avg # of iterations =  8.3

     total cpu time spent up to now is       12.8 secs

     total energy              =    -306.87295588 Ry
     estimated scf accuracy    <       0.00030184 Ry

     iteration #  4     ecut=    80.00 Ry     beta= 0.70
     Davidson diagonalization with overlap
     c_bands:  1 eigenvalues not converged
     c_bands:  2 eigenvalues not converged
     ethr =  1.37E-06,  avg # of iterations =  7.2

     total cpu time spent up to now is       15.0 secs

     total energy              =    -306.87314299 Ry
     estimated scf accuracy    <       0.00015192 Ry

     iteration #  5     ecut=    80.00 Ry     beta= 0.70
     Davidson diagonalization with overlap
     c_bands:  1 eigenvalues not converged
     c_bands:  2 eigenvalues not converged
     ethr =  6.91E-07,  avg # of iterations =  7.2

     total cpu time spent up to now is       17.1 secs

     total energy              =    -306.87322820 Ry
     estimated scf accuracy    <       0.00002130 Ry

     iteration #  6     ecut=    80.00 Ry     beta= 0.70
     Davidson diagonalization with overlap
     ethr =  9.68E-08,  avg # of iterations =  7.3

     total cpu time spent up to now is       19.1 secs

     total energy              =    -306.87322567 Ry
     estimated scf accuracy    <       0.00002507 Ry

     iteration #  7     ecut=    80.00 Ry     beta= 0.70
     Davidson diagonalization with overlap
     ethr =  9.68E-08,  avg # of iterations =  4.1

     total cpu time spent up to now is       20.7 secs

     total energy              =    -306.87323070 Ry
     estimated scf accuracy    <       0.00000035 Ry

     iteration #  8     ecut=    80.00 Ry     beta= 0.70
     Davidson diagonalization with overlap
     c_bands:  2 eigenvalues not converged
     c_bands:  2 eigenvalues not converged
     c_bands:  1 eigenvalues not converged
     c_bands:  2 eigenvalues not converged
     c_bands:  1 eigenvalues not converged
     c_bands:  1 eigenvalues not converged
     c_bands:  1 eigenvalues not converged
     c_bands:  2 eigenvalues not converged
     c_bands:  1 eigenvalues not converged
     c_bands:  1 eigenvalues not converged
     c_bands:  1 eigenvalues not converged
     c_bands:  1 eigenvalues not converged
     c_bands:  1 eigenvalues not converged
     c_bands:  1 eigenvalues not converged
     c_bands:  2 eigenvalues not converged
     c_bands:  4 eigenvalues not converged
     ethr =  1.59E-09,  avg # of iterations = 17.3

     total cpu time spent up to now is       25.5 secs

     total energy              =    -306.87323421 Ry
     estimated scf accuracy    <       0.00000250 Ry

     iteration #  9     ecut=    80.00 Ry     beta= 0.70
     Davidson diagonalization with overlap
     ethr =  1.59E-09,  avg # of iterations =  1.7

     total cpu time spent up to now is       26.7 secs

     total energy              =    -306.87323310 Ry
     estimated scf accuracy    <       0.00000169 Ry

     iteration # 10     ecut=    80.00 Ry     beta= 0.70
     Davidson diagonalization with overlap
     ethr =  1.59E-09,  avg # of iterations =  7.7

     total cpu time spent up to now is       29.0 secs

     total energy              =    -306.87323371 Ry
     estimated scf accuracy    <       0.00000009 Ry

     iteration # 11     ecut=    80.00 Ry     beta= 0.70
     Davidson diagonalization with overlap
     ethr =  4.31E-10,  avg # of iterations =  4.3

     total cpu time spent up to now is       30.9 secs

     End of self-consistent calculation

          k = 0.0000 0.0000 0.0000 (  4055 PWs)   bands (ev):

   -40.1389 -40.0746 -19.2239 -18.8903 -18.8903 -18.8319 -18.8319 -18.8149
     3.7531   7.1395   9.3007  10.3505  10.3506  10.4606  10.7541

          k = 0.0000 0.0000 0.0784 (  4055 PWs)   bands (ev):

   -40.1365 -40.0770 -19.2088 -18.8881 -18.8881 -18.8342 -18.8342 -18.8310
     3.8543   6.9862   9.2698  10.3078  10.3078  10.3954  10.6985

          k = 0.0000 0.0000 0.1568 (  4078 PWs)   bands (ev):

   -40.1296 -40.0841 -19.1657 -18.8818 -18.8818 -18.8766 -18.8405 -18.8405
     4.1513   6.5413   9.2776  10.2128  10.2453  10.2453  10.5636

          k = 0.0000 0.0000 0.2353 (  4078 PWs)   bands (ev):

   -40.1192 -40.0945 -19.1006 -18.9441 -18.8724 -18.8724 -18.8500 -18.8500
     4.6230   5.9063   9.4174   9.9502  10.2333  10.2337  10.4111

          k = 0.0000 0.0000-0.3137 (  4060 PWs)   bands (ev):

   -40.1069 -40.1069 -19.0229 -19.0229 -18.8612 -18.8612 -18.8612 -18.8612
     5.2302   5.2302   9.6632   9.6633  10.2914  10.2914  10.2914

          k = 0.0000 0.0962 0.0000 (  4067 PWs)   bands (ev):

   -40.1356 -40.0732 -19.2151 -18.9086 -18.8964 -18.8510 -18.8345 -18.8187
     3.9044   7.2694   9.1760  10.0812  10.4599  10.6287  10.6904

          k = 0.0000 0.0962 0.0784 (  4065 PWs)   bands (ev):

   -40.1332 -40.0756 -19.2009 -18.9059 -18.8941 -18.8591 -18.8369 -18.8283
     4.0041   7.1158   9.1477  10.0773  10.4055  10.5029  10.6290

          k = 0.0000 0.0962 0.1568 (  4062 PWs)   bands (ev):

   -40.1265 -40.0824 -19.1604 -18.8990 -18.8924 -18.8874 -18.8447 -18.8436
     4.2969   6.6685   9.1698  10.0831  10.2318  10.3321  10.5259

          k = 0.0000 0.0962 0.2353 (  4059 PWs)   bands (ev):

   -40.1164 -40.0926 -19.0993 -18.9537 -18.8868 -18.8774 -18.8588 -18.8537
     4.7624   6.0341   9.3306   9.9168  10.1299  10.3175  10.3755

          k = 0.0000 0.0962-0.3137 (  4072 PWs)   bands (ev):

   -40.1045 -40.1045 -19.0267 -19.0267 -18.8731 -18.8731 -18.8655 -18.8655
     5.3629   5.3629   9.5991   9.5991  10.2304  10.2314  10.3753

          k = 0.0000 0.1925 0.0000 (  4083 PWs)   bands (ev):

   -40.1264 -40.0697 -19.1899 -18.9587 -18.9125 -18.9021 -18.8421 -18.8299
     4.3436   7.6178   8.8897   9.6701  10.4046  10.7787  10.8108

          k = 0.0000 0.1925 0.0784 (  4068 PWs)   bands (ev):

   -40.1242 -40.0718 -19.1788 -18.9546 -18.9117 -18.9098 -18.8448 -18.8362
     4.4385   7.4643   8.8732   9.6894  10.3957  10.5402  10.6276

          k = 0.0000 0.1925 0.1568 (  4056 PWs)   bands (ev):

   -40.1181 -40.0780 -19.1472 -18.9481 -18.9349 -18.9022 -18.8527 -18.8524
     4.7174   7.0137   8.9342   9.7462  10.1705  10.4047  10.5375

          k = 0.0000 0.1925 0.2353 (  4076 PWs)   bands (ev):

   -40.1089 -40.0872 -19.0998 -18.9886 -18.9214 -18.8908 -18.8748 -18.8639
     5.1618   6.3875   9.1355   9.7345   9.9539  10.2564  10.5307

          k = 0.0000 0.1925-0.3137 (  4076 PWs)   bands (ev):

   -40.0981 -40.0981 -19.0438 -19.0438 -18.8987 -18.8987 -18.8774 -18.8774
     5.7376   5.7376   9.4316   9.4317  10.0754  10.0755  10.6019

          k = 0.0000 0.2887 0.0000 (  4059 PWs)   bands (ev):

   -40.1132 -40.0653 -19.1520 -19.0279 -18.9700 -18.9337 -18.8530 -18.8486
     5.0251   8.0248   8.5817   9.2457  10.1853  10.4662  10.5662

          k = 0.0000 0.2887 0.0784 (  4069 PWs)   bands (ev):

   -40.1114 -40.0672 -19.1486 -19.0192 -18.9791 -18.9306 -18.8561 -18.8519
     5.1104   7.8766   8.5926   9.2765  10.1576  10.4064  10.5793

          k = 0.0000 0.2887 0.1568 (  4066 PWs)   bands (ev):

   -40.1062 -40.0724 -19.1368 -19.0150 -18.9842 -18.9219 -18.8649 -18.8636
     5.3608   7.4430   8.7097   9.3530  10.0117  10.2954  10.6288

          k = 0.0000 0.2887 0.2353 (  4076 PWs)   bands (ev):

   -40.0985 -40.0802 -19.1148 -19.0474 -18.9526 -18.9089 -18.8855 -18.8780
     5.7598   6.8653   8.9364   9.3904   9.8529  10.1257  10.7296

          k = 0.0000 0.2887-0.3137 (  4072 PWs)   bands (ev):

   -40.0893 -40.0893 -19.0836 -19.0836 -18.9167 -18.9167 -18.8935 -18.8935
     6.2775   6.2775   9.2087   9.2087   9.9282   9.9283  10.8824

          k = 0.0000 0.3849 0.0000 (  4090 PWs)   bands (ev):

   -40.0990 -40.0620 -19.1076 -19.0977 -19.0356 -18.9542 -18.8739 -18.8645
     5.8645   8.1841   8.3322   8.9111  10.2110  10.2190  10.3539

          k = 0.0000 0.3849 0.0784 (  4079 PWs)   bands (ev):

   -40.0976 -40.0634 -19.1341 -19.0668 -19.0400 -18.9508 -18.8738 -18.8680
     5.9315   8.0426   8.4012   8.9527  10.0661  10.2976  10.4034

          k = 0.0000 0.3849 0.1568 (  4074 PWs)   bands (ev):

   -40.0936 -40.0675 -19.1507 -19.0794 -19.0065 -18.9411 -18.8780 -18.8778
     6.1276   7.7099   8.5622   9.0408   9.9205  10.2474  10.5484

          k = 0.0000 0.3849 0.2353 (  4076 PWs)   bands (ev):

   -40.0876 -40.0735 -19.1511 -19.1098 -18.9607 -18.9267 -18.8930 -18.8924
     6.4382   7.2809   8.7850   9.0944   9.8334  10.0784  10.7786

          k = 0.0000 0.3849-0.3137 (  4070 PWs)   bands (ev):

   -40.0805 -40.0805 -19.1362 -19.1362 -18.9211 -18.9211 -18.9095 -18.9095
     6.8365   6.8365   9.0011   9.0011   9.8950   9.8951  11.0735

          k = 0.0000 0.4811 0.0000 (  4090 PWs)   bands (ev):

   -40.0872 -40.0610 -19.1490 -19.0825 -19.0664 -18.9689 -18.9010 -18.8732
     6.7156   8.0184   8.1750   8.6615  10.0484  10.2126  10.4245

          k = 0.0000 0.4811 0.0784 (  4083 PWs)   bands (ev):

   -40.0862 -40.0620 -19.1631 -19.0964 -19.0416 -18.9652 -18.8976 -18.8769
     6.7472   7.9225   8.2740   8.6919  10.0537  10.2745  10.3782

          k = 0.0000 0.4811 0.1568 (  4074 PWs)   bands (ev):

   -40.0834 -40.0648 -19.1818 -19.1249 -18.9975 -18.9550 -18.8939 -18.8873
     6.8437   7.7270   8.4674   8.7887  10.0408  10.2554  10.4573

          k = 0.0000 0.4811 0.2353 (  4075 PWs)   bands (ev):

   -40.0791 -40.0691 -19.1880 -19.1556 -18.9541 -18.9395 -18.9029 -18.8997
     7.0056   7.4786   8.6984   8.8991   9.9840  10.1057  10.7505

          k = 0.0000 0.4811-0.3137 (  4082 PWs)   bands (ev):

   -40.0741 -40.0741 -19.1786 -19.1786 -18.9213 -18.9213 -18.9200 -18.9200
     7.2248   7.2248   8.8816   8.8816   9.9874   9.9874  11.1349

          k = 0.0000-0.5774 0.0000 (  4072 PWs)   bands (ev):

   -40.0822 -40.0612 -19.1678 -19.0995 -19.0471 -18.9742 -18.9152 -18.8764
     7.2300   7.7828   8.1218   8.5463   9.9876  10.1632  10.5237

          k = 0.0000-0.5774 0.0784 (  4082 PWs)   bands (ev):

   -40.0814 -40.0620 -19.1790 -19.1122 -19.0281 -18.9705 -18.9100 -18.8802
     7.2095   7.7597   8.2329   8.5436  10.0427  10.2287  10.4527

          k = 0.0000-0.5774 0.1568 (  4074 PWs)   bands (ev):

   -40.0791 -40.0643 -19.1961 -19.1413 -18.9889 -18.9600 -18.9021 -18.8909
     7.1943   7.6669   8.4961   8.5946  10.1386  10.2731  10.4218

          k = 0.0000-0.5774 0.2353 (  4084 PWs)   bands (ev):

   -40.0757 -40.0677 -19.2029 -19.1722 -18.9492 -18.9442 -18.9068 -18.9033
     7.2379   7.5103   8.7327   8.7647  10.0905  10.1458  10.7329

          k = 0.0000-0.5774-0.3137 (  4100 PWs)   bands (ev):

   -40.0717 -40.0717 -19.1946 -19.1946 -18.9255 -18.9255 -18.9190 -18.9190
     7.3505   7.3505   8.8503   8.8503  10.0615  10.0616  11.1432

          k = 0.0833 0.1443 0.0000 (  4063 PWs)   bands (ev):

   -40.1293 -40.0708 -19.1980 -18.9393 -18.9155 -18.8791 -18.8421 -18.8261
     4.1999   7.5109   8.9752   9.7818  10.4854  10.6891  10.7597

          k = 0.0833 0.1443 0.0784 (  4062 PWs)   bands (ev):

   -40.1271 -40.0730 -19.1859 -18.9356 -18.9149 -18.8870 -18.8447 -18.8328
     4.2965   7.3570   8.9543   9.7969  10.4933  10.5087  10.5830

          k = 0.0833 0.1443 0.1568 (  4068 PWs)   bands (ev):

   -40.1208 -40.0794 -19.1511 -18.9288 -18.9252 -18.8970 -18.8519 -18.8487
     4.5804   6.9064   9.0025   9.8453  10.1968  10.4334  10.4908

          k = 0.0833 0.1443 0.2353 (  4069 PWs)   bands (ev):

   -40.1113 -40.0889 -19.0988 -18.9761 -18.9095 -18.8903 -18.8673 -18.8626
     5.0323   6.2757   9.1933   9.8105   9.9871  10.2860  10.4770

          k = 0.0833 0.1443-0.3137 (  4072 PWs)   bands (ev):

   -40.1001 -40.1001 -19.0370 -19.0370 -18.8918 -18.8918 -18.8739 -18.8739
     5.6173   5.6173   9.4861   9.4861  10.1160  10.1161  10.5325

          k = 0.0833 0.2406 0.0000 (  4060 PWs)   bands (ev):

   -40.1181 -40.0668 -19.1665 -18.9942 -18.9605 -18.9131 -18.8550 -18.8412
     4.7624   7.9081   8.6963   9.3710  10.2557  10.4610  10.7510

          k = 0.0833 0.2406 0.0784 (  4061 PWs)   bands (ev):

   -40.1162 -40.0688 -19.1592 -18.9883 -18.9645 -18.9163 -18.8582 -18.8445
     4.8519   7.7563   8.6921   9.3986  10.2648  10.3825  10.6767

          k = 0.0833 0.2406 0.1568 (  4065 PWs)   bands (ev):

   -40.1106 -40.0744 -19.1381 -18.9891 -18.9653 -18.9171 -18.8669 -18.8556
     5.1152   7.3074   8.7868   9.4741  10.0857  10.3013  10.6263

          k = 0.0833 0.2406 0.2353 (  4069 PWs)   bands (ev):

   -40.1023 -40.0827 -19.1055 -19.0233 -18.9405 -18.9105 -18.8802 -18.8733
     5.5351   6.7001   9.0095   9.5181   9.8709  10.1409  10.6780

          k = 0.0833 0.2406-0.3137 (  4066 PWs)   bands (ev):

   -40.0925 -40.0925 -19.0652 -19.0652 -18.9143 -18.9143 -18.8873 -18.8873
     6.0805   6.0805   9.3001   9.3002   9.9460   9.9460  10.7837

          k = 0.0833 0.3368 0.0000 (  4077 PWs)   bands (ev):

   -40.1044 -40.0631 -19.1250 -19.0624 -19.0152 -18.9447 -18.8689 -18.8635
     5.5301   8.2265   8.4408   8.9953  10.1519  10.2050  10.5102

          k = 0.0833 0.3368 0.0784 (  4077 PWs)   bands (ev):

   -40.1028 -40.0647 -19.1319 -19.0486 -19.0187 -18.9445 -18.8737 -18.8624
     5.6066   8.0780   8.4828   9.0330  10.0615  10.2717  10.4929

          k = 0.0833 0.3368 0.1568 (  4072 PWs)   bands (ev):

   -40.0983 -40.0691 -19.1373 -19.0542 -18.9983 -18.9398 -18.8843 -18.8662
     5.8309   7.6812   8.6307   9.1231   9.9187  10.2209  10.5628

          k = 0.0833 0.3368 0.2353 (  4067 PWs)   bands (ev):

   -40.0916 -40.0758 -19.1306 -19.0827 -18.9602 -18.9290 -18.8982 -18.8798
     6.1876   7.1694   8.8565   9.1954   9.7848  10.0282  10.7528

          k = 0.0833 0.3368-0.3137 (  4068 PWs)   bands (ev):

   -40.0838 -40.0838 -19.1110 -19.1110 -18.9304 -18.9304 -18.8990 -18.8990
     6.6486   6.6486   9.0928   9.0928   9.8296   9.8297  10.9899

          k = 0.0833 0.4330 0.0000 (  4079 PWs)   bands (ev):

   -40.0912 -40.0611 -19.1227 -19.0810 -19.0630 -18.9691 -18.8909 -18.8808
     6.3937   8.1984   8.2573   8.7312  10.0373  10.2779  10.3218

          k = 0.0833 0.4330 0.0784 (  4082 PWs)   bands (ev):

   -40.0900 -40.0622 -19.1418 -19.0811 -19.0455 -18.9665 -18.8923 -18.8802
     6.4459   8.0662   8.3512   8.7823   9.9860  10.2616  10.3652

          k = 0.0833 0.4330 0.1568 (  4084 PWs)   bands (ev):

   -40.0868 -40.0655 -19.1617 -19.1052 -19.0038 -18.9563 -18.9012 -18.8789
     6.5987   7.8129   8.5203   8.8952   9.8826  10.1547  10.5179

          k = 0.0833 0.4330 0.2353 (  4077 PWs)   bands (ev):

   -40.0819 -40.0704 -19.1672 -19.1342 -18.9675 -18.9380 -18.9142 -18.8857
     6.8402   7.4889   8.7441   8.9890   9.7956   9.9687  10.7690

          k = 0.0833 0.4330-0.3137 (  4068 PWs)   bands (ev):

   -40.0761 -40.0761 -19.1570 -19.1570 -18.9427 -18.9427 -18.9036 -18.9036
     7.1485   7.1485   8.9430   8.9430   9.8131   9.8132  11.0946

          k = 0.0833 0.5292 0.0000 (  4075 PWs)   bands (ev):

   -40.0823 -40.0612 -19.1576 -19.0906 -19.0474 -18.9825 -18.9149 -18.8878
     7.1521   7.9464   8.1634   8.5450   9.9717  10.1218  10.5191

          k = 0.0833 0.5292 0.0784 (  4079 PWs)   bands (ev):

   -40.0815 -40.0620 -19.1688 -19.1038 -19.0300 -18.9770 -18.9119 -18.8890
     7.1568   7.8949   8.2657   8.5669   9.9872  10.1290  10.5059

          k = 0.0833 0.5292 0.1568 (  4078 PWs)   bands (ev):

   -40.0792 -40.0643 -19.1859 -19.1329 -18.9991 -18.9589 -18.9148 -18.8883
     7.1884   7.7696   8.4848   8.6721   9.9879  10.0678  10.5783

          k = 0.0833 0.5292 0.2353 (  4081 PWs)   bands (ev):

   -40.0758 -40.0677 -19.1929 -19.1632 -18.9729 -18.9342 -18.9257 -18.8903
     7.2724   7.5933   8.7232   8.8466   9.8815   9.9532  10.8212

          k = 0.0833 0.5292-0.3137 (  4092 PWs)   bands (ev):

   -40.0717 -40.0717 -19.1850 -19.1850 -18.9504 -18.9504 -18.9041 -18.9041
     7.4138   7.4138   8.8916   8.8916   9.8450   9.8451  11.1720

          k = 0.1667 0.2887 0.0000 (  4067 PWs)   bands (ev):

   -40.1063 -40.0635 -19.1311 -19.0324 -19.0247 -18.9333 -18.8786 -18.8600
     5.4164   8.2631   8.4956   8.9993  10.1424  10.1606  10.5991

          k = 0.1667 0.2887 0.0784 (  4068 PWs)   bands (ev):

   -40.1047 -40.0651 -19.1329 -19.0288 -19.0191 -18.9385 -18.8817 -18.8593
     5.4961   8.1098   8.5253   9.0330  10.1103  10.1916  10.5442

          k = 0.1667 0.2887 0.1568 (  4082 PWs)   bands (ev):

   -40.1000 -40.0698 -19.1319 -19.0442 -18.9880 -18.9442 -18.8898 -18.8627
     5.7301   7.6828   8.6672   9.1258   9.9607  10.1821  10.5361

          k = 0.1667 0.2887 0.2353 (  4079 PWs)   bands (ev):

   -40.0931 -40.0767 -19.1208 -19.0706 -18.9536 -18.9412 -18.8991 -18.8759
     6.1030   7.1367   8.8949   9.2235   9.7779   9.9870  10.7100

          k = 0.1667 0.2887-0.3137 (  4072 PWs)   bands (ev):

   -40.0849 -40.0849 -19.0990 -19.0990 -18.9365 -18.9365 -18.8952 -18.8952
     6.5867   6.5867   9.1387   9.1387   9.7861   9.7861  10.9337

          k = 0.1667 0.3849 0.0000 (  4083 PWs)   bands (ev):

   -40.0934 -40.0612 -19.0889 -19.0881 -19.0592 -18.9658 -18.9011 -18.8856
     6.2279   8.3440   8.4191   8.7001   9.9482  10.2289  10.3574

          k = 0.1667 0.3849 0.0784 (  4085 PWs)   bands (ev):

   -40.0922 -40.0625 -19.1185 -19.0791 -19.0353 -18.9705 -18.9053 -18.8799
     6.2911   8.2250   8.4787   8.7454   9.9120  10.2526  10.3070

          k = 0.1667 0.3849 0.1568 (  4082 PWs)   bands (ev):

   -40.0887 -40.0659 -19.1390 -19.0931 -18.9969 -18.9714 -18.9138 -18.8742
     6.4760   7.9368   8.6237   8.8544   9.8162  10.0737  10.4326

          k = 0.1667 0.3849 0.2353 (  4082 PWs)   bands (ev):

   -40.0835 -40.0712 -19.1445 -19.1154 -18.9761 -18.9573 -18.9157 -18.8791
     6.7678   7.5499   8.8258   8.9801   9.6880   9.8306  10.6657

          k = 0.1667 0.3849-0.3137 (  4078 PWs)   bands (ev):

   -40.0773 -40.0773 -19.1353 -19.1353 -18.9623 -18.9623 -18.8965 -18.8965
     7.1398   7.1398   8.9948   8.9948   9.6571   9.6572  10.9747

          k = 0.1667 0.4811 0.0000 (  4088 PWs)   bands (ev):

   -40.0823 -40.0611 -19.1311 -19.0754 -19.0481 -18.9972 -18.9162 -18.9142
     7.0540   8.2455   8.2564   8.5332   9.8649  10.1069  10.4866

          k = 0.1667 0.4811 0.0784 (  4086 PWs)   bands (ev):

   -40.0815 -40.0619 -19.1416 -19.0920 -19.0301 -18.9918 -18.9252 -18.9011
     7.0892   8.1451   8.3476   8.6046   9.8371  10.0439  10.5053

          k = 0.1667 0.4811 0.1568 (  4084 PWs)   bands (ev):

   -40.0792 -40.0642 -19.1593 -19.1175 -19.0161 -18.9671 -18.9338 -18.8875
     7.1926   7.9880   8.5095   8.7652   9.7480   9.8694  10.5929

          k = 0.1667 0.4811 0.2353 (  4090 PWs)   bands (ev):

   -40.0758 -40.0677 -19.1681 -19.1439 -19.0014 -18.9648 -18.9186 -18.8839
     7.3563   7.7855   8.7383   8.9339   9.6189   9.6380  10.7804

          k = 0.1667 0.4811-0.3137 (  4086 PWs)   bands (ev):

   -40.0717 -40.0717 -19.1626 -19.1626 -18.9827 -18.9827 -18.8949 -18.8949
     7.5633   7.5633   8.9473   8.9473   9.5242   9.5242  11.0647

          k = 0.1667 0.5774 0.0000 (  4073 PWs)   bands (ev):

   -40.0774 -40.0620 -19.1466 -19.0797 -19.0273 -19.0107 -18.9305 -18.9215
     7.5566   8.0290   8.2286   8.4381   9.9089   9.9405  10.6151

          k = 0.1667 0.5774 0.0784 (  4086 PWs)   bands (ev):

   -40.0768 -40.0626 -19.1550 -19.0935 -19.0326 -18.9873 -18.9371 -18.9106
     7.5485   8.0161   8.3206   8.4704   9.8725   9.9050  10.6280

          k = 0.1667 0.5774 0.1568 (  4090 PWs)   bands (ev):

   -40.0751 -40.0642 -19.1702 -19.1234 -19.0267 -18.9504 -18.9501 -18.8944
     7.5550   7.9543   8.5519   8.5907   9.7659   9.7727  10.7056

          k = 0.1667 0.5774 0.2353 (  4087 PWs)   bands (ev):

   -40.0726 -40.0667 -19.1782 -19.1530 -19.0110 -18.9690 -18.9164 -18.8868
     7.6096   7.8406   8.7977   8.8353   9.5538   9.5940  10.8844

          k = 0.1667 0.5774-0.3137 (  4098 PWs)   bands (ev):

   -40.0697 -40.0697 -19.1727 -19.1727 -18.9904 -18.9904 -18.8940 -18.8940
     7.7126   7.7126   8.9777   8.9777   9.4320   9.4320  11.1538

          k = 0.2500 0.4330 0.0000 (  4111 PWs)   bands (ev):

   -40.0824 -40.0611 -19.1083 -19.0786 -19.0484 -18.9966 -18.9371 -18.9139
     7.0183   8.3093   8.4412   8.4818   9.7889  10.1169  10.4535

          k = 0.2500 0.4330 0.0784 (  4095 PWs)   bands (ev):

   -40.0816 -40.0619 -19.1104 -19.1067 -19.0161 -19.0068 -18.9395 -18.9032
     7.0651   8.2473   8.4783   8.5580   9.7729  10.0126  10.4637

          k = 0.2500 0.4330 0.1568 (  4087 PWs)   bands (ev):

   -40.0793 -40.0642 -19.1351 -19.1196 -19.0179 -18.9830 -18.9389 -18.8875
     7.2002   8.1096   8.5879   8.7165   9.7062   9.7692  10.5206

          k = 0.2500 0.4330 0.2353 (  4087 PWs)   bands (ev):

   -40.0758 -40.0677 -19.1495 -19.1358 -19.0141 -18.9841 -18.9158 -18.8822
     7.4070   7.9054   8.7580   8.8930   9.5116   9.5701  10.6799

          k = 0.2500 0.4330-0.3137 (  4088 PWs)   bands (ev):

   -40.0717 -40.0717 -19.1486 -19.1486 -18.9998 -18.9998 -18.8921 -18.8921
     7.6561   7.6561   8.9262   8.9262   9.4299   9.4299  10.9652

          k = 0.2500 0.5292 0.0000 (  4082 PWs)   bands (ev):

   -40.0740 -40.0630 -19.1235 -19.0674 -19.0313 -19.0122 -18.9598 -18.9431
     7.7096   8.2591   8.3111   8.3765   9.7631   9.8913  10.6777

          k = 0.2500 0.5292 0.0784 (  4084 PWs)   bands (ev):

   -40.0736 -40.0635 -19.1266 -19.0863 -19.0467 -18.9868 -18.9641 -18.9264
     7.7378   8.2318   8.3438   8.4651   9.7227   9.7962  10.6818

          k = 0.2500 0.5292 0.1568 (  4092 PWs)   bands (ev):

   -40.0724 -40.0646 -19.1389 -19.1134 -19.0564 -18.9859 -18.9392 -18.9021
     7.8158   8.1883   8.4678   8.6484   9.5467   9.6086  10.7170

          k = 0.2500 0.5292 0.2353 (  4100 PWs)   bands (ev):

   -40.0706 -40.0664 -19.1513 -19.1375 -19.0464 -19.0047 -18.9076 -18.8877
     7.9249   8.1286   8.6722   8.8861   9.2467   9.4056  10.8311

          k = 0.2500 0.5292-0.3137 (  4100 PWs)   bands (ev):

   -40.0685 -40.0685 -19.1515 -19.1515 -19.0266 -19.0266 -18.8893 -18.8893
     8.0379   8.0379   8.9375   8.9375   9.1555   9.1555  11.0608

          k = 0.3333 0.5774 0.0000 (  4077 PWs)   bands (ev):

   -40.0673 -40.0673 -19.1140 -19.0526 -19.0526 -18.9855 -18.9763 -18.9763
     8.1582   8.1582   8.2619   8.3475   9.7598   9.7598  10.7724

          k = 0.3333 0.5774 0.0784 (  4104 PWs)   bands (ev):

   -40.0673 -40.0673 -19.1092 -19.0742 -19.0742 -18.9905 -18.9545 -18.9545
     8.2039   8.2039   8.2808   8.3661   9.6822   9.6822  10.7711

          k = 0.3333 0.5774 0.1568 (  4077 PWs)   bands (ev):

   -40.0673 -40.0673 -19.1073 -19.1073 -19.0954 -19.0046 -18.9208 -18.9208
     8.3312   8.3343   8.3343   8.4090   9.4818   9.4818  10.7879

          k = 0.3333 0.5774 0.2353 (  4104 PWs)   bands (ev):

   -40.0673 -40.0673 -19.1313 -19.1313 -19.0747 -19.0256 -18.8962 -18.8962
     8.3934   8.4434   8.5220   8.5220   9.2317   9.2318  10.8743

          k = 0.3333 0.5774-0.3137 (  4128 PWs)   bands (ev):

   -40.0673 -40.0673 -19.1399 -19.1399 -19.0502 -19.0502 -18.8873 -18.8873
     8.4389   8.4389   8.6526   8.6526   9.0772   9.0772  11.0787

     the Fermi energy is     8.8145 ev

!    total energy              =    -306.87323373 Ry
     total all-electron energy =     -3050.014005 Ry
     estimated scf accuracy    <          5.8E-09 Ry
     smearing contrib. (-TS)   =      -0.00104030 Ry
     internal energy E=F+TS    =    -306.87219344 Ry

     The total energy is F=E-TS. E is the sum of the following terms:
     one-electron contribution =     -74.40846292 Ry
     hartree contribution      =      42.28657723 Ry
     xc contribution           =     -34.52748392 Ry
     ewald contribution        =    -126.46581261 Ry
     one-center paw contrib.   =    -113.75701122 Ry

     convergence has been achieved in  11 iterations

     Writing all to output data dir sc_rhocut.out/scandium.save/

     init_run     :      0.72s CPU      0.76s WALL (       1 calls)
     electrons    :     28.26s CPU     29.84s WALL (       1 calls)

     Called by init_run:
     wfcinit      :      0.57s CPU      0.59s WALL (       1 calls)
     potinit      :      0.05s CPU      0.05s WALL (       1 calls)
     hinit0       :      0.08s CPU      0.09s WALL (       1 calls)

     Called by electrons:
     c_bands      :     25.61s CPU     27.00s WALL (      12 calls)
     sum_band     :      2.18s CPU      2.26s WALL (      12 calls)
     v_of_rho     :      0.01s CPU      0.01s WALL (      12 calls)
     newd         :      0.12s CPU      0.12s WALL (      12 calls)
     PAW_pot      :      0.36s CPU      0.36s WALL (      12 calls)
     mix_rho      :      0.01s CPU      0.01s WALL (      12 calls)

     Called by c_bands:
     init_us_2    :      0.27s CPU      0.29s WALL (    2375 calls)
     init_us_2:cp :      0.27s CPU      0.29s WALL (    2375 calls)
     cegterg      :     25.00s CPU     25.75s WALL (    1140 calls)

     Called by *egterg:
     cdiaghg      :      2.82s CPU      2.89s WALL (    9516 calls)
     h_psi        :     16.71s CPU     17.29s WALL (    9706 calls)
     s_psi        :      1.11s CPU      1.14s WALL (    9706 calls)
     g_psi        :      0.11s CPU      0.11s WALL (    8471 calls)

     Called by h_psi:
     h_psi:calbec :      1.38s CPU      1.43s WALL (    9706 calls)
     vloc_psi     :     14.14s CPU     14.64s WALL (    9706 calls)
     add_vuspsi   :      1.10s CPU      1.14s WALL (    9706 calls)

     General routines
     calbec       :      1.64s CPU      1.70s WALL (   10846 calls)
     fft          :      0.01s CPU      0.01s WALL (      49 calls)
     ffts         :      0.00s CPU      0.00s WALL (      12 calls)
     fftw         :     14.57s CPU     15.08s WALL (  171250 calls)

     Parallel routines

     PWSCF        :     29.48s CPU     31.67s WALL


   This run was terminated on:  12:14: 6  26Jul2023            

=------------------------------------------------------------------------------=
   JOB DONE.
=------------------------------------------------------------------------------=
