
     Program PWSCF v.7.2 starts on 26Jul2023 at 12:14: 8 

     This program is part of the open-source Quantum ESPRESSO suite
     for quantum simulation of materials; please cite
         "P. Giannozzi et al., J. Phys.:Condens. Matter 21 395502 (2009);
         "P. Giannozzi et al., J. Phys.:Condens. Matter 29 465901 (2017);
         "P. Giannozzi et al., J. Chem. Phys. 152 154105 (2020);
          URL http://www.quantum-espresso.org", 
     in publications or presentations arising from this work. More details at
     http://www.quantum-espresso.org/quote

     Parallel version (MPI), running on    20 processors

     MPI processes distributed on     1 nodes
     317496 MiB available memory on the printing compute node when the environment starts

     Waiting for input...
     Reading input from standard input

     Current dimensions of program PWSCF are:
     Max number of different atomic species (ntypx) = 10
     Max number of k-points (npk) = 120000
     Max angular momentum in pseudopotentials (lmaxx) =  4
     file Sc.pz-spn-kjpaw_psl.1.0.0.UPF: wavefunction(s)  3S 3P 3D renormalized

     R & G space division:  proc/nbgrp/npool/nimage =      20
     Subspace diagonalization in iterative solution of the eigenvalue problem:
     a serial algorithm will be used


     Parallelization info
     --------------------
     sticks:   dense  smooth     PW     G-vecs:    dense   smooth      PW
     Min          47      47     14                 1943     1943     300
     Max          48      48     15                 1952     1952     306
     Sum         955     955    283                38995    38995    6075

     Using Slab Decomposition



     bravais-lattice index     =            4
     lattice parameter (alat)  =       6.2531  a.u.
     unit-cell volume          =     337.5249 (a.u.)^3
     number of atoms/cell      =            2
     number of atomic types    =            1
     number of electrons       =        22.00
     number of Kohn-Sham states=           15
     kinetic-energy cutoff     =      90.0000  Ry
     charge density cutoff     =     360.0000  Ry
     scf convergence threshold =      1.0E-08
     mixing beta               =       0.7000
     number of iterations used =            8  plain     mixing
     Exchange-correlation= SLA  PZ   NOGX NOGC
                           (   1   1   0   0   0   0   0)

     celldm(1)=   6.253104  celldm(2)=   0.000000  celldm(3)=   1.594000
     celldm(4)=   0.000000  celldm(5)=   0.000000  celldm(6)=   0.000000

     crystal axes: (cart. coord. in units of alat)
               a(1) = (   1.000000   0.000000   0.000000 )  
               a(2) = (  -0.500000   0.866025   0.000000 )  
               a(3) = (   0.000000   0.000000   1.594000 )  

     reciprocal axes: (cart. coord. in units 2 pi/alat)
               b(1) = (  1.000000  0.577350 -0.000000 )  
               b(2) = (  0.000000  1.154701  0.000000 )  
               b(3) = (  0.000000 -0.000000  0.627353 )  


     PseudoPot. # 1 for Sc read from file:
     ../../Sc.pz-spn-kjpaw_psl.1.0.0.UPF
     MD5 check sum: 1f9095df0bb42a6568b4e9f256ff075f
     Pseudo is Projector augmented-wave + core cor, Zval = 11.0
     Generated using 'atomic' code by A. Dal Corso  v.7.1
     Shape of augmentation charge: PSQ
     Using radial grid of 1173 points,  6 beta functions with: 
                l(1) =   0
                l(2) =   0
                l(3) =   1
                l(4) =   1
                l(5) =   2
                l(6) =   2
     Q(r) pseudized with 0 coefficients 


     atomic species   valence    mass     pseudopotential
        Sc            11.00    44.59600     Sc( 1.00)

     24 Sym. Ops., with inversion, found (12 have fractional translation)



   Cartesian axes

     site n.     atom                  positions (alat units)
         1           Sc  tau(   1) = (   0.0000000   0.0000000   0.0000000  )
         2           Sc  tau(   2) = (   0.5000000   0.2886751   0.7970000  )

     number of k points=    95  Marzari-Vanderbilt smearing, width (Ry)=  0.0200
                       cart. coord. in units 2pi/alat
        k(    1) = (   0.0000000   0.0000000   0.0000000), wk =   0.0017361
        k(    2) = (   0.0000000   0.0000000   0.0784191), wk =   0.0034722
        k(    3) = (   0.0000000   0.0000000   0.1568381), wk =   0.0034722
        k(    4) = (   0.0000000   0.0000000   0.2352572), wk =   0.0034722
        k(    5) = (   0.0000000   0.0000000  -0.3136763), wk =   0.0017361
        k(    6) = (   0.0000000   0.0962250   0.0000000), wk =   0.0104167
        k(    7) = (   0.0000000   0.0962250   0.0784191), wk =   0.0208333
        k(    8) = (   0.0000000   0.0962250   0.1568381), wk =   0.0208333
        k(    9) = (   0.0000000   0.0962250   0.2352572), wk =   0.0208333
        k(   10) = (   0.0000000   0.0962250  -0.3136763), wk =   0.0104167
        k(   11) = (   0.0000000   0.1924501   0.0000000), wk =   0.0104167
        k(   12) = (   0.0000000   0.1924501   0.0784191), wk =   0.0208333
        k(   13) = (   0.0000000   0.1924501   0.1568381), wk =   0.0208333
        k(   14) = (   0.0000000   0.1924501   0.2352572), wk =   0.0208333
        k(   15) = (   0.0000000   0.1924501  -0.3136763), wk =   0.0104167
        k(   16) = (   0.0000000   0.2886751   0.0000000), wk =   0.0104167
        k(   17) = (   0.0000000   0.2886751   0.0784191), wk =   0.0208333
        k(   18) = (   0.0000000   0.2886751   0.1568381), wk =   0.0208333
        k(   19) = (   0.0000000   0.2886751   0.2352572), wk =   0.0208333
        k(   20) = (   0.0000000   0.2886751  -0.3136763), wk =   0.0104167
        k(   21) = (   0.0000000   0.3849002   0.0000000), wk =   0.0104167
        k(   22) = (   0.0000000   0.3849002   0.0784191), wk =   0.0208333
        k(   23) = (   0.0000000   0.3849002   0.1568381), wk =   0.0208333
        k(   24) = (   0.0000000   0.3849002   0.2352572), wk =   0.0208333
        k(   25) = (   0.0000000   0.3849002  -0.3136763), wk =   0.0104167
        k(   26) = (   0.0000000   0.4811252   0.0000000), wk =   0.0104167
        k(   27) = (   0.0000000   0.4811252   0.0784191), wk =   0.0208333
        k(   28) = (   0.0000000   0.4811252   0.1568381), wk =   0.0208333
        k(   29) = (   0.0000000   0.4811252   0.2352572), wk =   0.0208333
        k(   30) = (   0.0000000   0.4811252  -0.3136763), wk =   0.0104167
        k(   31) = (   0.0000000  -0.5773503   0.0000000), wk =   0.0052083
        k(   32) = (   0.0000000  -0.5773503   0.0784191), wk =   0.0104167
        k(   33) = (   0.0000000  -0.5773503   0.1568381), wk =   0.0104167
        k(   34) = (   0.0000000  -0.5773503   0.2352572), wk =   0.0104167
        k(   35) = (   0.0000000  -0.5773503  -0.3136763), wk =   0.0052083
        k(   36) = (   0.0833333   0.1443376   0.0000000), wk =   0.0104167
        k(   37) = (   0.0833333   0.1443376   0.0784191), wk =   0.0208333
        k(   38) = (   0.0833333   0.1443376   0.1568381), wk =   0.0208333
        k(   39) = (   0.0833333   0.1443376   0.2352572), wk =   0.0208333
        k(   40) = (   0.0833333   0.1443376  -0.3136763), wk =   0.0104167
        k(   41) = (   0.0833333   0.2405626   0.0000000), wk =   0.0208333
        k(   42) = (   0.0833333   0.2405626   0.0784191), wk =   0.0416667
        k(   43) = (   0.0833333   0.2405626   0.1568381), wk =   0.0416667
        k(   44) = (   0.0833333   0.2405626   0.2352572), wk =   0.0416667
        k(   45) = (   0.0833333   0.2405626  -0.3136763), wk =   0.0208333
        k(   46) = (   0.0833333   0.3367877   0.0000000), wk =   0.0208333
        k(   47) = (   0.0833333   0.3367877   0.0784191), wk =   0.0416667
        k(   48) = (   0.0833333   0.3367877   0.1568381), wk =   0.0416667
        k(   49) = (   0.0833333   0.3367877   0.2352572), wk =   0.0416667
        k(   50) = (   0.0833333   0.3367877  -0.3136763), wk =   0.0208333
        k(   51) = (   0.0833333   0.4330127   0.0000000), wk =   0.0208333
        k(   52) = (   0.0833333   0.4330127   0.0784191), wk =   0.0416667
        k(   53) = (   0.0833333   0.4330127   0.1568381), wk =   0.0416667
        k(   54) = (   0.0833333   0.4330127   0.2352572), wk =   0.0416667
        k(   55) = (   0.0833333   0.4330127  -0.3136763), wk =   0.0208333
        k(   56) = (   0.0833333   0.5292377   0.0000000), wk =   0.0208333
        k(   57) = (   0.0833333   0.5292377   0.0784191), wk =   0.0416667
        k(   58) = (   0.0833333   0.5292377   0.1568381), wk =   0.0416667
        k(   59) = (   0.0833333   0.5292377   0.2352572), wk =   0.0416667
        k(   60) = (   0.0833333   0.5292377  -0.3136763), wk =   0.0208333
        k(   61) = (   0.1666667   0.2886751   0.0000000), wk =   0.0104167
        k(   62) = (   0.1666667   0.2886751   0.0784191), wk =   0.0208333
        k(   63) = (   0.1666667   0.2886751   0.1568381), wk =   0.0208333
        k(   64) = (   0.1666667   0.2886751   0.2352572), wk =   0.0208333
        k(   65) = (   0.1666667   0.2886751  -0.3136763), wk =   0.0104167
        k(   66) = (   0.1666667   0.3849002   0.0000000), wk =   0.0208333
        k(   67) = (   0.1666667   0.3849002   0.0784191), wk =   0.0416667
        k(   68) = (   0.1666667   0.3849002   0.1568381), wk =   0.0416667
        k(   69) = (   0.1666667   0.3849002   0.2352572), wk =   0.0416667
        k(   70) = (   0.1666667   0.3849002  -0.3136763), wk =   0.0208333
        k(   71) = (   0.1666667   0.4811252   0.0000000), wk =   0.0208333
        k(   72) = (   0.1666667   0.4811252   0.0784191), wk =   0.0416667
        k(   73) = (   0.1666667   0.4811252   0.1568381), wk =   0.0416667
        k(   74) = (   0.1666667   0.4811252   0.2352572), wk =   0.0416667
        k(   75) = (   0.1666667   0.4811252  -0.3136763), wk =   0.0208333
        k(   76) = (   0.1666667   0.5773503   0.0000000), wk =   0.0104167
        k(   77) = (   0.1666667   0.5773503   0.0784191), wk =   0.0208333
        k(   78) = (   0.1666667   0.5773503   0.1568381), wk =   0.0208333
        k(   79) = (   0.1666667   0.5773503   0.2352572), wk =   0.0208333
        k(   80) = (   0.1666667   0.5773503  -0.3136763), wk =   0.0104167
        k(   81) = (   0.2500000   0.4330127   0.0000000), wk =   0.0104167
        k(   82) = (   0.2500000   0.4330127   0.0784191), wk =   0.0208333
        k(   83) = (   0.2500000   0.4330127   0.1568381), wk =   0.0208333
        k(   84) = (   0.2500000   0.4330127   0.2352572), wk =   0.0208333
        k(   85) = (   0.2500000   0.4330127  -0.3136763), wk =   0.0104167
        k(   86) = (   0.2500000   0.5292377   0.0000000), wk =   0.0208333
        k(   87) = (   0.2500000   0.5292377   0.0784191), wk =   0.0416667
        k(   88) = (   0.2500000   0.5292377   0.1568381), wk =   0.0416667
        k(   89) = (   0.2500000   0.5292377   0.2352572), wk =   0.0416667
        k(   90) = (   0.2500000   0.5292377  -0.3136763), wk =   0.0208333
        k(   91) = (   0.3333333   0.5773503   0.0000000), wk =   0.0034722
        k(   92) = (   0.3333333   0.5773503   0.0784191), wk =   0.0069444
        k(   93) = (   0.3333333   0.5773503   0.1568381), wk =   0.0069444
        k(   94) = (   0.3333333   0.5773503   0.2352572), wk =   0.0069444
        k(   95) = (   0.3333333   0.5773503  -0.3136763), wk =   0.0034722

     Dense  grid:    38995 G-vectors     FFT dimensions: (  45,  45,  64)

     Estimated max dynamical RAM per process >      13.96 MB

     Estimated total dynamical RAM >     279.26 MB

     Check: negative core charge=   -0.000008

     Initial potential from superposition of free atoms

     starting charge      21.9956, renormalised to      22.0000
     Starting wfcs are   20 randomized atomic wfcs
     Checking if some PAW data can be deallocated... 

     total cpu time spent up to now is        1.3 secs

     Self-consistent Calculation

     iteration #  1     ecut=    90.00 Ry     beta= 0.70
     Davidson diagonalization with overlap
     ethr =  1.00E-02,  avg # of iterations =  2.1

     Threshold (ethr) on eigenvalues was too large:
     Diagonalizing with lowered threshold

     Davidson diagonalization with overlap
     c_bands:  1 eigenvalues not converged
     c_bands:  3 eigenvalues not converged
     c_bands:  1 eigenvalues not converged
     c_bands:  1 eigenvalues not converged
     c_bands:  1 eigenvalues not converged
     c_bands:  2 eigenvalues not converged
     c_bands:  1 eigenvalues not converged
     c_bands:  1 eigenvalues not converged
     c_bands:  2 eigenvalues not converged
     c_bands:  4 eigenvalues not converged
     c_bands:  2 eigenvalues not converged
     c_bands:  3 eigenvalues not converged
     c_bands:  4 eigenvalues not converged
     c_bands:  4 eigenvalues not converged
     c_bands:  1 eigenvalues not converged
     c_bands:  3 eigenvalues not converged
     c_bands:  3 eigenvalues not converged
     c_bands:  1 eigenvalues not converged
     c_bands:  1 eigenvalues not converged
     c_bands:  2 eigenvalues not converged
     c_bands:  3 eigenvalues not converged
     c_bands:  3 eigenvalues not converged
     c_bands:  1 eigenvalues not converged
     c_bands:  1 eigenvalues not converged
     c_bands:  2 eigenvalues not converged
     c_bands:  2 eigenvalues not converged
     c_bands:  1 eigenvalues not converged
     c_bands:  2 eigenvalues not converged
     c_bands:  3 eigenvalues not converged
     c_bands:  1 eigenvalues not converged
     c_bands:  1 eigenvalues not converged
     ethr =  2.07E-05,  avg # of iterations = 17.7

     total cpu time spent up to now is       12.3 secs

     total energy              =    -306.86719116 Ry
     estimated scf accuracy    <       0.01987997 Ry

     iteration #  2     ecut=    90.00 Ry     beta= 0.70
     Davidson diagonalization with overlap
     ethr =  9.04E-05,  avg # of iterations =  4.7

     total cpu time spent up to now is       14.9 secs

     total energy              =    -306.87208595 Ry
     estimated scf accuracy    <       0.00141043 Ry

     iteration #  3     ecut=    90.00 Ry     beta= 0.70
     Davidson diagonalization with overlap
     c_bands:  3 eigenvalues not converged
     c_bands:  1 eigenvalues not converged
     ethr =  6.41E-06,  avg # of iterations =  8.0

     total cpu time spent up to now is       18.5 secs

     total energy              =    -306.87311692 Ry
     estimated scf accuracy    <       0.00028847 Ry

     iteration #  4     ecut=    90.00 Ry     beta= 0.70
     Davidson diagonalization with overlap
     c_bands:  4 eigenvalues not converged
     c_bands:  1 eigenvalues not converged
     c_bands:  2 eigenvalues not converged
     ethr =  1.31E-06,  avg # of iterations =  7.4

     total cpu time spent up to now is       21.7 secs

     total energy              =    -306.87330258 Ry
     estimated scf accuracy    <       0.00014030 Ry

     iteration #  5     ecut=    90.00 Ry     beta= 0.70
     Davidson diagonalization with overlap
     c_bands:  1 eigenvalues not converged
     c_bands:  1 eigenvalues not converged
     ethr =  6.38E-07,  avg # of iterations =  7.0

     total cpu time spent up to now is       24.6 secs

     total energy              =    -306.87337855 Ry
     estimated scf accuracy    <       0.00001782 Ry

     iteration #  6     ecut=    90.00 Ry     beta= 0.70
     Davidson diagonalization with overlap
     ethr =  8.10E-08,  avg # of iterations =  7.8

     total cpu time spent up to now is       27.6 secs

     total energy              =    -306.87337871 Ry
     estimated scf accuracy    <       0.00001869 Ry

     iteration #  7     ecut=    90.00 Ry     beta= 0.70
     Davidson diagonalization with overlap
     ethr =  8.10E-08,  avg # of iterations =  4.8

     total cpu time spent up to now is       30.1 secs

     total energy              =    -306.87338408 Ry
     estimated scf accuracy    <       0.00000002 Ry

     iteration #  8     ecut=    90.00 Ry     beta= 0.70
     Davidson diagonalization with overlap
     c_bands:  4 eigenvalues not converged
     c_bands:  1 eigenvalues not converged
     c_bands:  3 eigenvalues not converged
     c_bands:  1 eigenvalues not converged
     c_bands:  3 eigenvalues not converged
     c_bands:  1 eigenvalues not converged
     c_bands:  3 eigenvalues not converged
     c_bands:  3 eigenvalues not converged
     c_bands:  3 eigenvalues not converged
     c_bands:  3 eigenvalues not converged
     c_bands:  4 eigenvalues not converged
     c_bands:  4 eigenvalues not converged
     c_bands:  3 eigenvalues not converged
     c_bands:  5 eigenvalues not converged
     c_bands:  4 eigenvalues not converged
     c_bands:  4 eigenvalues not converged
     c_bands:  4 eigenvalues not converged
     c_bands:  4 eigenvalues not converged
     c_bands:  3 eigenvalues not converged
     c_bands:  4 eigenvalues not converged
     c_bands:  2 eigenvalues not converged
     c_bands:  3 eigenvalues not converged
     c_bands:  3 eigenvalues not converged
     c_bands:  1 eigenvalues not converged
     c_bands:  3 eigenvalues not converged
     c_bands:  5 eigenvalues not converged
     c_bands:  3 eigenvalues not converged
     c_bands:  3 eigenvalues not converged
     c_bands:  4 eigenvalues not converged
     c_bands:  3 eigenvalues not converged
     c_bands:  3 eigenvalues not converged
     c_bands:  3 eigenvalues not converged
     c_bands:  3 eigenvalues not converged
     c_bands:  3 eigenvalues not converged
     c_bands:  3 eigenvalues not converged
     c_bands:  4 eigenvalues not converged
     c_bands:  4 eigenvalues not converged
     c_bands:  3 eigenvalues not converged
     c_bands:  4 eigenvalues not converged
     c_bands:  3 eigenvalues not converged
     c_bands:  3 eigenvalues not converged
     c_bands:  3 eigenvalues not converged
     c_bands:  3 eigenvalues not converged
     c_bands:  3 eigenvalues not converged
     c_bands:  4 eigenvalues not converged
     c_bands:  2 eigenvalues not converged
     c_bands:  3 eigenvalues not converged
     c_bands:  4 eigenvalues not converged
     c_bands:  3 eigenvalues not converged
     c_bands:  4 eigenvalues not converged
     c_bands:  4 eigenvalues not converged
     c_bands:  3 eigenvalues not converged
     c_bands:  4 eigenvalues not converged
     c_bands:  4 eigenvalues not converged
     c_bands:  4 eigenvalues not converged
     c_bands:  4 eigenvalues not converged
     c_bands:  3 eigenvalues not converged
     c_bands:  3 eigenvalues not converged
     c_bands:  4 eigenvalues not converged
     c_bands:  4 eigenvalues not converged
     c_bands:  4 eigenvalues not converged
     c_bands:  3 eigenvalues not converged
     c_bands:  4 eigenvalues not converged
     c_bands:  5 eigenvalues not converged
     c_bands:  2 eigenvalues not converged
     c_bands:  4 eigenvalues not converged
     ethr =  1.10E-10,  avg # of iterations = 24.1

     total cpu time spent up to now is       41.7 secs

     total energy              =    -306.87338619 Ry
     estimated scf accuracy    <       0.00000031 Ry

     iteration #  9     ecut=    90.00 Ry     beta= 0.70
     Davidson diagonalization with overlap
     ethr =  1.10E-10,  avg # of iterations =  6.5

     total cpu time spent up to now is       44.2 secs

     total energy              =    -306.87338598 Ry
     estimated scf accuracy    <       0.00000035 Ry

     iteration # 10     ecut=    90.00 Ry     beta= 0.70
     Davidson diagonalization with overlap
     ethr =  1.10E-10,  avg # of iterations =  9.5

     total cpu time spent up to now is       47.9 secs

     End of self-consistent calculation

          k = 0.0000 0.0000 0.0000 (  4867 PWs)   bands (ev):

   -40.1391 -40.0748 -19.2240 -18.8905 -18.8905 -18.8321 -18.8321 -18.8151
     3.7531   7.1392   9.3007  10.3501  10.3501  10.4603  10.7539

          k = 0.0000 0.0000 0.0784 (  4848 PWs)   bands (ev):

   -40.1366 -40.0772 -19.2089 -18.8883 -18.8883 -18.8343 -18.8343 -18.8312
     3.8543   6.9860   9.2696  10.3074  10.3075  10.3952  10.6982

          k = 0.0000 0.0000 0.1568 (  4854 PWs)   bands (ev):

   -40.1297 -40.0842 -19.1658 -18.8820 -18.8820 -18.8767 -18.8407 -18.8407
     4.1513   6.5411   9.2774  10.2131  10.2449  10.2450  10.5633

          k = 0.0000 0.0000 0.2353 (  4890 PWs)   bands (ev):

   -40.1193 -40.0947 -19.1007 -18.9443 -18.8725 -18.8725 -18.8502 -18.8502
     4.6230   5.9063   9.4172   9.9497  10.2330  10.2330  10.4108

          k = 0.0000 0.0000-0.3137 (  4890 PWs)   bands (ev):

   -40.1070 -40.1070 -19.0230 -19.0230 -18.8614 -18.8614 -18.8614 -18.8614
     5.2302   5.2302   9.6629   9.6630  10.2910  10.2910  10.2910

          k = 0.0000 0.0962 0.0000 (  4873 PWs)   bands (ev):

   -40.1358 -40.0734 -19.2152 -18.9087 -18.8966 -18.8512 -18.8347 -18.8188
     3.9044   7.2692   9.1757  10.0809  10.4597  10.6313  10.6961

          k = 0.0000 0.0962 0.0784 (  4882 PWs)   bands (ev):

   -40.1334 -40.0758 -19.2010 -18.9061 -18.8942 -18.8592 -18.8371 -18.8285
     4.0041   7.1155   9.1476  10.0769  10.4051  10.5026  10.6287

          k = 0.0000 0.0962 0.1568 (  4879 PWs)   bands (ev):

   -40.1267 -40.0826 -19.1605 -18.8992 -18.8926 -18.8875 -18.8448 -18.8438
     4.2969   6.6684   9.1701  10.0827  10.2315  10.3318  10.6470

          k = 0.0000 0.0962 0.2353 (  4895 PWs)   bands (ev):

   -40.1166 -40.0927 -19.0995 -18.9539 -18.8869 -18.8775 -18.8590 -18.8539
     4.7624   6.0340   9.3302   9.9165  10.1295  10.3169  10.3749

          k = 0.0000 0.0962-0.3137 (  4906 PWs)   bands (ev):

   -40.1047 -40.1047 -19.0269 -19.0269 -18.8733 -18.8733 -18.8657 -18.8657
     5.3628   5.3628   9.5988   9.5988  10.2300  10.2302  10.3749

          k = 0.0000 0.1925 0.0000 (  4891 PWs)   bands (ev):

   -40.1265 -40.0698 -19.1900 -18.9589 -18.9126 -18.9023 -18.8422 -18.8300
     4.3436   7.6175   8.8895   9.6697  10.4044  10.7778  10.8104

          k = 0.0000 0.1925 0.0784 (  4894 PWs)   bands (ev):

   -40.1244 -40.0720 -19.1789 -18.9547 -18.9119 -18.9100 -18.8449 -18.8363
     4.4385   7.4641   8.8730   9.6890  10.3954  10.5402  10.6270

          k = 0.0000 0.1925 0.1568 (  4888 PWs)   bands (ev):

   -40.1183 -40.0782 -19.1473 -18.9482 -18.9351 -18.9024 -18.8528 -18.8526
     4.7174   7.0136   8.9339   9.7458  10.1702  10.4042  10.5369

          k = 0.0000 0.1925 0.2353 (  4884 PWs)   bands (ev):

   -40.1091 -40.0874 -19.0999 -18.9887 -18.9215 -18.8910 -18.8749 -18.8641
     5.1618   6.3874   9.1352   9.7341   9.9536  10.2561  10.5303

          k = 0.0000 0.1925-0.3137 (  4888 PWs)   bands (ev):

   -40.0983 -40.0983 -19.0440 -19.0440 -18.8989 -18.8989 -18.8775 -18.8775
     5.7375   5.7375   9.4312   9.4313  10.0750  10.0751  10.6015

          k = 0.0000 0.2887 0.0000 (  4872 PWs)   bands (ev):

   -40.1134 -40.0655 -19.1522 -19.0280 -18.9701 -18.9338 -18.8532 -18.8488
     5.0251   8.0244   8.5815   9.2454  10.1849  10.4657  10.5659

          k = 0.0000 0.2887 0.0784 (  4875 PWs)   bands (ev):

   -40.1116 -40.0674 -19.1487 -19.0193 -18.9793 -18.9308 -18.8563 -18.8521
     5.1104   7.8763   8.5923   9.2761  10.1573  10.4060  10.5790

          k = 0.0000 0.2887 0.1568 (  4877 PWs)   bands (ev):

   -40.1064 -40.0726 -19.1369 -19.0152 -18.9843 -18.9221 -18.8651 -18.8637
     5.3607   7.4428   8.7093   9.3526  10.0114  10.2950  10.6285

          k = 0.0000 0.2887 0.2353 (  4873 PWs)   bands (ev):

   -40.0986 -40.0803 -19.1150 -19.0475 -18.9527 -18.9091 -18.8857 -18.8782
     5.7598   6.8652   8.9361   9.3901   9.8525  10.1253  10.7294

          k = 0.0000 0.2887-0.3137 (  4882 PWs)   bands (ev):

   -40.0895 -40.0895 -19.0838 -19.0838 -18.9168 -18.9168 -18.8937 -18.8937
     6.2775   6.2775   9.2083   9.2083   9.9279   9.9279  10.8821

          k = 0.0000 0.3849 0.0000 (  4870 PWs)   bands (ev):

   -40.0992 -40.0622 -19.1078 -19.0978 -19.0358 -18.9543 -18.8740 -18.8647
     5.8645   8.1837   8.3320   8.9108  10.2106  10.2187  10.3535

          k = 0.0000 0.3849 0.0784 (  4858 PWs)   bands (ev):

   -40.0978 -40.0636 -19.1342 -19.0669 -19.0402 -18.9509 -18.8740 -18.8681
     5.9314   8.0423   8.4009   8.9524  10.0658  10.2973  10.4030

          k = 0.0000 0.3849 0.1568 (  4863 PWs)   bands (ev):

   -40.0938 -40.0676 -19.1509 -19.0795 -19.0067 -18.9413 -18.8782 -18.8779
     6.1276   7.7097   8.5619   9.0405   9.9202  10.2471  10.5481

          k = 0.0000 0.3849 0.2353 (  4864 PWs)   bands (ev):

   -40.0878 -40.0736 -19.1513 -19.1100 -18.9609 -18.9268 -18.8931 -18.8925
     6.4381   7.2807   8.7847   9.0941   9.8331  10.0781  10.7783

          k = 0.0000 0.3849-0.3137 (  4870 PWs)   bands (ev):

   -40.0807 -40.0807 -19.1364 -19.1364 -18.9213 -18.9213 -18.9097 -18.9097
     6.8364   6.8364   9.0008   9.0008   9.8948   9.8948  11.0732

          k = 0.0000 0.4811 0.0000 (  4838 PWs)   bands (ev):

   -40.0874 -40.0611 -19.1491 -19.0827 -19.0666 -18.9690 -18.9012 -18.8734
     6.7155   8.0180   8.1747   8.6613  10.0481  10.2122  10.4242

          k = 0.0000 0.4811 0.0784 (  4854 PWs)   bands (ev):

   -40.0864 -40.0621 -19.1632 -19.0966 -19.0417 -18.9654 -18.8978 -18.8770
     6.7471   7.9222   8.2737   8.6916  10.0534  10.2742  10.3779

          k = 0.0000 0.4811 0.1568 (  4866 PWs)   bands (ev):

   -40.0835 -40.0650 -19.1819 -19.1251 -18.9977 -18.9551 -18.8940 -18.8875
     6.8435   7.7267   8.4670   8.7884  10.0406  10.2551  10.4570

          k = 0.0000 0.4811 0.2353 (  4859 PWs)   bands (ev):

   -40.0793 -40.0692 -19.1882 -19.1557 -18.9542 -18.9397 -18.9031 -18.8999
     7.0054   7.4783   8.6981   8.8988   9.9838  10.1055  10.7502

          k = 0.0000 0.4811-0.3137 (  4862 PWs)   bands (ev):

   -40.0743 -40.0743 -19.1788 -19.1788 -18.9214 -18.9214 -18.9201 -18.9201
     7.2246   7.2246   8.8813   8.8813   9.9872   9.9873  11.1345

          k = 0.0000-0.5774 0.0000 (  4858 PWs)   bands (ev):

   -40.0824 -40.0614 -19.1679 -19.0996 -19.0472 -18.9743 -18.9154 -18.8766
     7.2298   7.7824   8.1214   8.5461   9.9873  10.1629  10.5233

          k = 0.0000-0.5774 0.0784 (  4862 PWs)   bands (ev):

   -40.0816 -40.0622 -19.1791 -19.1123 -19.0282 -18.9706 -18.9101 -18.8803
     7.2093   7.7594   8.2326   8.5434  10.0424  10.2283  10.4523

          k = 0.0000-0.5774 0.1568 (  4842 PWs)   bands (ev):

   -40.0793 -40.0645 -19.1962 -19.1415 -18.9890 -18.9601 -18.9022 -18.8910
     7.1941   7.6666   8.4958   8.5943  10.1384  10.2728  10.4215

          k = 0.0000-0.5774 0.2353 (  4866 PWs)   bands (ev):

   -40.0759 -40.0679 -19.2030 -19.1724 -18.9493 -18.9444 -18.9070 -18.9034
     7.2376   7.5100   8.7324   8.7644  10.0903  10.1457  10.7326

          k = 0.0000-0.5774-0.3137 (  4888 PWs)   bands (ev):

   -40.0719 -40.0719 -19.1947 -19.1947 -18.9257 -18.9257 -18.9192 -18.9192
     7.3503   7.3503   8.8500   8.8500  10.0613  10.0614  11.1429

          k = 0.0833 0.1443 0.0000 (  4879 PWs)   bands (ev):

   -40.1295 -40.0709 -19.1982 -18.9394 -18.9157 -18.8792 -18.8423 -18.8263
     4.1999   7.5106   8.9751   9.7815  10.4849  10.6889  10.7596

          k = 0.0833 0.1443 0.0784 (  4894 PWs)   bands (ev):

   -40.1273 -40.0732 -19.1860 -18.9358 -18.9151 -18.8872 -18.8448 -18.8330
     4.2965   7.3567   8.9541   9.7965  10.4935  10.5084  10.5823

          k = 0.0833 0.1443 0.1568 (  4885 PWs)   bands (ev):

   -40.1210 -40.0796 -19.1512 -18.9290 -18.9253 -18.8972 -18.8521 -18.8489
     4.5803   6.9063   9.0022   9.8449  10.1965  10.4327  10.4903

          k = 0.0833 0.1443 0.2353 (  4888 PWs)   bands (ev):

   -40.1115 -40.0891 -19.0989 -18.9763 -18.9097 -18.8905 -18.8674 -18.8628
     5.0323   6.2757   9.1930   9.8102   9.9867  10.2852  10.4761

          k = 0.0833 0.1443-0.3137 (  4892 PWs)   bands (ev):

   -40.1003 -40.1003 -19.0372 -19.0372 -18.8920 -18.8920 -18.8740 -18.8740
     5.6172   5.6172   9.4857   9.4857  10.1156  10.1158  10.5322

          k = 0.0833 0.2406 0.0000 (  4875 PWs)   bands (ev):

   -40.1183 -40.0670 -19.1666 -18.9944 -18.9607 -18.9133 -18.8552 -18.8413
     4.7623   7.9078   8.6961   9.3706  10.2554  10.4607  10.7514

          k = 0.0833 0.2406 0.0784 (  4880 PWs)   bands (ev):

   -40.1163 -40.0690 -19.1593 -18.9884 -18.9647 -18.9165 -18.8583 -18.8447
     4.8519   7.7561   8.6919   9.3982  10.2645  10.3819  10.6757

          k = 0.0833 0.2406 0.1568 (  4879 PWs)   bands (ev):

   -40.1108 -40.0746 -19.1383 -18.9892 -18.9655 -18.9172 -18.8671 -18.8558
     5.1152   7.3072   8.7865   9.4737  10.0853  10.3007  10.6258

          k = 0.0833 0.2406 0.2353 (  4882 PWs)   bands (ev):

   -40.1025 -40.0829 -19.1056 -19.0235 -18.9407 -18.9106 -18.8803 -18.8735
     5.5351   6.7001   9.0091   9.5177   9.8705  10.1407  10.6777

          k = 0.0833 0.2406-0.3137 (  4882 PWs)   bands (ev):

   -40.0927 -40.0927 -19.0654 -19.0654 -18.9145 -18.9145 -18.8875 -18.8875
     6.0805   6.0805   9.2997   9.2998   9.9456   9.9458  10.7833

          k = 0.0833 0.3368 0.0000 (  4866 PWs)   bands (ev):

   -40.1045 -40.0632 -19.1252 -19.0626 -19.0153 -18.9448 -18.8691 -18.8636
     5.5301   8.2262   8.4405   8.9950  10.1516  10.2047  10.5099

          k = 0.0833 0.3368 0.0784 (  4859 PWs)   bands (ev):

   -40.1030 -40.0648 -19.1320 -19.0488 -19.0188 -18.9447 -18.8739 -18.8625
     5.6066   8.0777   8.4825   9.0327  10.0612  10.2713  10.4925

          k = 0.0833 0.3368 0.1568 (  4867 PWs)   bands (ev):

   -40.0985 -40.0693 -19.1375 -19.0543 -18.9985 -18.9400 -18.8845 -18.8664
     5.8309   7.6810   8.6303   9.1228   9.9184  10.2206  10.5625

          k = 0.0833 0.3368 0.2353 (  4871 PWs)   bands (ev):

   -40.0918 -40.0760 -19.1307 -19.0829 -18.9604 -18.9292 -18.8984 -18.8799
     6.1875   7.1693   8.8561   9.1950   9.7844  10.0279  10.7524

          k = 0.0833 0.3368-0.3137 (  4874 PWs)   bands (ev):

   -40.0839 -40.0839 -19.1111 -19.1111 -18.9306 -18.9306 -18.8991 -18.8991
     6.6485   6.6485   9.0925   9.0925   9.8293   9.8293  10.9896

          k = 0.0833 0.4330 0.0000 (  4849 PWs)   bands (ev):

   -40.0913 -40.0613 -19.1229 -19.0811 -19.0631 -18.9693 -18.8911 -18.8810
     6.3937   8.1980   8.2570   8.7310  10.0370  10.2775  10.3214

          k = 0.0833 0.4330 0.0784 (  4855 PWs)   bands (ev):

   -40.0902 -40.0624 -19.1420 -19.0812 -19.0457 -18.9667 -18.8924 -18.8803
     6.4458   8.0659   8.3508   8.7820   9.9857  10.2612  10.3648

          k = 0.0833 0.4330 0.1568 (  4855 PWs)   bands (ev):

   -40.0869 -40.0657 -19.1619 -19.1053 -19.0040 -18.9564 -18.9014 -18.8790
     6.5986   7.8126   8.5200   8.8949   9.8823  10.1543  10.5176

          k = 0.0833 0.4330 0.2353 (  4870 PWs)   bands (ev):

   -40.0821 -40.0705 -19.1673 -19.1343 -18.9677 -18.9382 -18.9144 -18.8858
     6.8401   7.4887   8.7438   8.9887   9.7953   9.9684  10.7686

          k = 0.0833 0.4330-0.3137 (  4854 PWs)   bands (ev):

   -40.0763 -40.0763 -19.1572 -19.1572 -18.9428 -18.9428 -18.9038 -18.9038
     7.1483   7.1483   8.9427   8.9427   9.8128   9.8129  11.0942

          k = 0.0833 0.5292 0.0000 (  4857 PWs)   bands (ev):

   -40.0824 -40.0614 -19.1578 -19.0908 -19.0476 -18.9827 -18.9150 -18.8879
     7.1519   7.9460   8.1631   8.5448   9.9714  10.1214  10.5186

          k = 0.0833 0.5292 0.0784 (  4852 PWs)   bands (ev):

   -40.0816 -40.0622 -19.1689 -19.1040 -19.0302 -18.9772 -18.9121 -18.8891
     7.1566   7.8946   8.2653   8.5667   9.9870  10.1287  10.5055

          k = 0.0833 0.5292 0.1568 (  4847 PWs)   bands (ev):

   -40.0793 -40.0644 -19.1860 -19.1330 -18.9993 -18.9590 -18.9150 -18.8885
     7.1882   7.7694   8.4844   8.6718   9.9876  10.0675  10.5779

          k = 0.0833 0.5292 0.2353 (  4860 PWs)   bands (ev):

   -40.0759 -40.0679 -19.1931 -19.1634 -18.9731 -18.9343 -18.9258 -18.8905
     7.2721   7.5931   8.7229   8.8464   9.8812   9.9530  10.8208

          k = 0.0833 0.5292-0.3137 (  4862 PWs)   bands (ev):

   -40.0719 -40.0719 -19.1852 -19.1852 -18.9505 -18.9505 -18.9042 -18.9042
     7.4136   7.4136   8.8913   8.8913   9.8448   9.8449  11.1715

          k = 0.1667 0.2887 0.0000 (  4869 PWs)   bands (ev):

   -40.1065 -40.0637 -19.1312 -19.0325 -19.0248 -18.9335 -18.8788 -18.8602
     5.4164   8.2628   8.4954   8.9990  10.1420  10.1603  10.5987

          k = 0.1667 0.2887 0.0784 (  4864 PWs)   bands (ev):

   -40.1048 -40.0653 -19.1330 -19.0290 -19.0192 -18.9387 -18.8818 -18.8595
     5.4961   8.1096   8.5250   9.0326  10.1100  10.1912  10.5439

          k = 0.1667 0.2887 0.1568 (  4882 PWs)   bands (ev):

   -40.1002 -40.0700 -19.1320 -19.0444 -18.9881 -18.9443 -18.8899 -18.8629
     5.7301   7.6827   8.6669   9.1255   9.9604  10.1818  10.5358

          k = 0.1667 0.2887 0.2353 (  4867 PWs)   bands (ev):

   -40.0933 -40.0769 -19.1209 -19.0708 -18.9538 -18.9413 -18.8992 -18.8761
     6.1029   7.1366   8.8946   9.2231   9.7775   9.9867  10.7097

          k = 0.1667 0.2887-0.3137 (  4878 PWs)   bands (ev):

   -40.0851 -40.0851 -19.0991 -19.0991 -18.9366 -18.9366 -18.8954 -18.8954
     6.5866   6.5866   9.1383   9.1383   9.7858   9.7858  10.9334

          k = 0.1667 0.3849 0.0000 (  4860 PWs)   bands (ev):

   -40.0935 -40.0614 -19.0890 -19.0883 -19.0593 -18.9660 -18.9012 -18.8857
     6.2278   8.3437   8.4187   8.6998   9.9479  10.2286  10.3571

          k = 0.1667 0.3849 0.0784 (  4860 PWs)   bands (ev):

   -40.0923 -40.0626 -19.1186 -19.0792 -19.0354 -18.9707 -18.9055 -18.8801
     6.2911   8.2248   8.4784   8.7451   9.9117  10.2523  10.3067

          k = 0.1667 0.3849 0.1568 (  4866 PWs)   bands (ev):

   -40.0888 -40.0661 -19.1391 -19.0932 -18.9971 -18.9716 -18.9140 -18.8744
     6.4759   7.9366   8.6234   8.8541   9.8158  10.0733  10.4323

          k = 0.1667 0.3849 0.2353 (  4864 PWs)   bands (ev):

   -40.0836 -40.0713 -19.1446 -19.1156 -18.9763 -18.9575 -18.9159 -18.8793
     6.7677   7.5498   8.8255   8.9798   9.6876   9.8303  10.6654

          k = 0.1667 0.3849-0.3137 (  4862 PWs)   bands (ev):

   -40.0775 -40.0775 -19.1354 -19.1354 -18.9625 -18.9625 -18.8966 -18.8966
     7.1397   7.1397   8.9945   8.9945   9.6568   9.6568  10.9744

          k = 0.1667 0.4811 0.0000 (  4843 PWs)   bands (ev):

   -40.0825 -40.0613 -19.1313 -19.0755 -19.0482 -18.9974 -18.9163 -18.9144
     7.0539   8.2452   8.2561   8.5329   9.8645  10.1066  10.4863

          k = 0.1667 0.4811 0.0784 (  4857 PWs)   bands (ev):

   -40.0817 -40.0621 -19.1418 -19.0921 -19.0303 -18.9920 -18.9254 -18.9013
     7.0891   8.1448   8.3472   8.6044   9.8368  10.0435  10.5047

          k = 0.1667 0.4811 0.1568 (  4860 PWs)   bands (ev):

   -40.0794 -40.0644 -19.1595 -19.1177 -19.0163 -18.9672 -18.9340 -18.8876
     7.1925   7.9877   8.5092   8.7649   9.7478   9.8691  10.5926

          k = 0.1667 0.4811 0.2353 (  4857 PWs)   bands (ev):

   -40.0760 -40.0678 -19.1682 -19.1440 -19.0016 -18.9649 -18.9188 -18.8840
     7.3561   7.7852   8.7380   8.9337   9.6187   9.6376  10.7799

          k = 0.1667 0.4811-0.3137 (  4858 PWs)   bands (ev):

   -40.0719 -40.0719 -19.1628 -19.1628 -18.9829 -18.9829 -18.8950 -18.8950
     7.5631   7.5631   8.9470   8.9470   9.5239   9.5239  11.0644

          k = 0.1667 0.5774 0.0000 (  4854 PWs)   bands (ev):

   -40.0776 -40.0622 -19.1468 -19.0799 -19.0275 -19.0108 -18.9307 -18.9217
     7.5564   8.0288   8.2283   8.4379   9.9086   9.9401  10.6145

          k = 0.1667 0.5774 0.0784 (  4857 PWs)   bands (ev):

   -40.0770 -40.0627 -19.1551 -19.0937 -19.0328 -18.9874 -18.9372 -18.9107
     7.5483   8.0159   8.3203   8.4701   9.8722   9.9046  10.6275

          k = 0.1667 0.5774 0.1568 (  4857 PWs)   bands (ev):

   -40.0753 -40.0644 -19.1703 -19.1236 -19.0269 -18.9505 -18.9503 -18.8945
     7.5547   7.9541   8.5517   8.5904   9.7657   9.7723  10.7053

          k = 0.1667 0.5774 0.2353 (  4855 PWs)   bands (ev):

   -40.0728 -40.0669 -19.1784 -19.1532 -19.0112 -18.9691 -18.9165 -18.8870
     7.6093   7.8403   8.7974   8.8351   9.5535   9.5938  10.8839

          k = 0.1667 0.5774-0.3137 (  4846 PWs)   bands (ev):

   -40.0698 -40.0698 -19.1728 -19.1728 -18.9905 -18.9905 -18.8941 -18.8941
     7.7124   7.7124   8.9775   8.9775   9.4317   9.4317  11.1535

          k = 0.2500 0.4330 0.0000 (  4857 PWs)   bands (ev):

   -40.0826 -40.0613 -19.1085 -19.0788 -19.0485 -18.9967 -18.9372 -18.9140
     7.0182   8.3090   8.4410   8.4816   9.7885  10.1167  10.4532

          k = 0.2500 0.4330 0.0784 (  4864 PWs)   bands (ev):

   -40.0817 -40.0621 -19.1105 -19.1068 -19.0162 -19.0070 -18.9396 -18.9034
     7.0650   8.2470   8.4781   8.5577   9.7725  10.0123  10.4635

          k = 0.2500 0.4330 0.1568 (  4866 PWs)   bands (ev):

   -40.0794 -40.0644 -19.1353 -19.1197 -19.0181 -18.9832 -18.9391 -18.8876
     7.2001   8.1093   8.5877   8.7162   9.7059   9.7689  10.5203

          k = 0.2500 0.4330 0.2353 (  4866 PWs)   bands (ev):

   -40.0760 -40.0678 -19.1497 -19.1359 -19.0142 -18.9843 -18.9159 -18.8823
     7.4069   7.9051   8.7578   8.8928   9.5112   9.5697  10.6796

          k = 0.2500 0.4330-0.3137 (  4854 PWs)   bands (ev):

   -40.0719 -40.0719 -19.1488 -19.1488 -19.0000 -19.0000 -18.8923 -18.8923
     7.6560   7.6560   8.9259   8.9259   9.4296   9.4296  10.9649

          k = 0.2500 0.5292 0.0000 (  4866 PWs)   bands (ev):

   -40.0742 -40.0632 -19.1237 -19.0676 -19.0314 -19.0123 -18.9599 -18.9432
     7.7094   8.2589   8.3107   8.3762   9.7627   9.8910  10.6773

          k = 0.2500 0.5292 0.0784 (  4866 PWs)   bands (ev):

   -40.0738 -40.0636 -19.1267 -19.0865 -19.0469 -18.9869 -18.9642 -18.9266
     7.7376   8.2315   8.3436   8.4649   9.7224   9.7959  10.6814

          k = 0.2500 0.5292 0.1568 (  4872 PWs)   bands (ev):

   -40.0726 -40.0648 -19.1391 -19.1136 -19.0566 -18.9861 -18.9394 -18.9023
     7.8156   8.1881   8.4675   8.6482   9.5464   9.6083  10.7167

          k = 0.2500 0.5292 0.2353 (  4859 PWs)   bands (ev):

   -40.0708 -40.0666 -19.1514 -19.1376 -19.0466 -19.0048 -18.9077 -18.8879
     7.9247   8.1283   8.6720   8.8859   9.2464   9.4054  10.8308

          k = 0.2500 0.5292-0.3137 (  4876 PWs)   bands (ev):

   -40.0687 -40.0687 -19.1517 -19.1517 -19.0268 -19.0268 -18.8894 -18.8894
     8.0377   8.0377   8.9373   8.9373   9.1552   9.1552  11.0605

          k = 0.3333 0.5774 0.0000 (  4878 PWs)   bands (ev):

   -40.0675 -40.0675 -19.1142 -19.0528 -19.0528 -18.9857 -18.9765 -18.9765
     8.1579   8.1579   8.2617   8.3471   9.7595   9.7595  10.7721

          k = 0.3333 0.5774 0.0784 (  4857 PWs)   bands (ev):

   -40.0675 -40.0675 -19.1094 -19.0743 -19.0743 -18.9906 -18.9547 -18.9547
     8.2037   8.2037   8.2806   8.3658   9.6819   9.6819  10.7708

          k = 0.3333 0.5774 0.1568 (  4875 PWs)   bands (ev):

   -40.0675 -40.0675 -19.1075 -19.1075 -19.0956 -19.0047 -18.9209 -18.9209
     8.3310   8.3340   8.3340   8.4087   9.4815   9.4815  10.7876

          k = 0.3333 0.5774 0.2353 (  4863 PWs)   bands (ev):

   -40.0675 -40.0675 -19.1314 -19.1314 -19.0749 -19.0257 -18.8963 -18.8963
     8.3932   8.4431   8.5218   8.5218   9.2315   9.2315  10.8740

          k = 0.3333 0.5774-0.3137 (  4866 PWs)   bands (ev):

   -40.0675 -40.0675 -19.1400 -19.1400 -19.0504 -19.0504 -18.8875 -18.8875
     8.4387   8.4387   8.6524   8.6524   9.0770   9.0770  11.0784

     the Fermi energy is     8.8142 ev

!    total energy              =    -306.87338607 Ry
     total all-electron energy =     -3050.014157 Ry
     estimated scf accuracy    <          4.2E-09 Ry
     smearing contrib. (-TS)   =      -0.00104021 Ry
     internal energy E=F+TS    =    -306.87234586 Ry

     The total energy is F=E-TS. E is the sum of the following terms:
     one-electron contribution =     -74.40825606 Ry
     hartree contribution      =      42.28619251 Ry
     xc contribution           =     -34.52743952 Ry
     ewald contribution        =    -126.46581261 Ry
     one-center paw contrib.   =    -113.75703018 Ry

     convergence has been achieved in  10 iterations

     Writing all to output data dir sc_rhocut.out/scandium.save/

     init_run     :      1.06s CPU      1.10s WALL (       1 calls)
     electrons    :     44.93s CPU     46.70s WALL (       1 calls)

     Called by init_run:
     wfcinit      :      0.85s CPU      0.88s WALL (       1 calls)
     potinit      :      0.05s CPU      0.06s WALL (       1 calls)
     hinit0       :      0.13s CPU      0.13s WALL (       1 calls)

     Called by electrons:
     c_bands      :     41.32s CPU     42.92s WALL (      11 calls)
     sum_band     :      3.15s CPU      3.23s WALL (      11 calls)
     v_of_rho     :      0.01s CPU      0.01s WALL (      11 calls)
     newd         :      0.13s CPU      0.13s WALL (      11 calls)
     PAW_pot      :      0.33s CPU      0.33s WALL (      11 calls)
     mix_rho      :      0.01s CPU      0.01s WALL (      11 calls)

     Called by c_bands:
     init_us_2    :      0.27s CPU      0.29s WALL (    2185 calls)
     init_us_2:cp :      0.26s CPU      0.28s WALL (    2185 calls)
     cegterg      :     40.68s CPU     41.63s WALL (    1076 calls)

     Called by *egterg:
     cdiaghg      :      3.13s CPU      3.20s WALL (   10449 calls)
     h_psi        :     30.55s CPU     31.35s WALL (   10640 calls)
     s_psi        :      1.42s CPU      1.45s WALL (   10640 calls)
     g_psi        :      0.15s CPU      0.15s WALL (    9469 calls)

     Called by h_psi:
     h_psi:calbec :      1.74s CPU      1.78s WALL (   10640 calls)
     vloc_psi     :     27.28s CPU     28.01s WALL (   10640 calls)
     add_vuspsi   :      1.43s CPU      1.46s WALL (   10640 calls)

     General routines
     calbec       :      2.01s CPU      2.06s WALL (   11685 calls)
     fft          :      0.03s CPU      0.03s WALL (      45 calls)
     ffts         :      0.00s CPU      0.00s WALL (      11 calls)
     fftw         :     27.65s CPU     28.37s WALL (  188455 calls)

     Parallel routines

     PWSCF        :     46.46s CPU     48.72s WALL


   This run was terminated on:  12:14:56  26Jul2023            

=------------------------------------------------------------------------------=
   JOB DONE.
=------------------------------------------------------------------------------=
