
     Program PWSCF v.7.2 starts on  7Nov2023 at 10:22:26 

     This program is part of the open-source Quantum ESPRESSO suite
     for quantum simulation of materials; please cite
         "P. Giannozzi et al., J. Phys.:Condens. Matter 21 395502 (2009);
         "P. Giannozzi et al., J. Phys.:Condens. Matter 29 465901 (2017);
         "P. Giannozzi et al., J. Chem. Phys. 152 154105 (2020);
          URL http://www.quantum-espresso.org", 
     in publications or presentations arising from this work. More details at
     http://www.quantum-espresso.org/quote

     Parallel version (MPI), running on    40 processors

     MPI processes distributed on     6 nodes
     300730 MiB available memory on the printing compute node when the environment starts

     Waiting for input...
     Reading input from standard input

     Current dimensions of program PWSCF are:
     Max number of different atomic species (ntypx) = 10
     Max number of k-points (npk) = 120000
     Max angular momentum in pseudopotentials (lmaxx) =  4
     file Sc.pz-spn-kjpaw_psl.1.0.0.UPF: wavefunction(s)  3S 3P 3D renormalized

     K-points division:     npool     =       2
     R & G space division:  proc/nbgrp/npool/nimage =      20
     Subspace diagonalization in iterative solution of the eigenvalue problem:
     a serial algorithm will be used


     Parallelization info
     --------------------
     sticks:   dense  smooth     PW     G-vecs:    dense   smooth      PW
     Min          42      42     12                 1626     1626     256
     Max          43      43     13                 1637     1637     263
     Sum         859     859    253                32631    32631    5203

     Using Slab Decomposition



     bravais-lattice index     =            4
     lattice parameter (alat)  =       6.2531  a.u.
     unit-cell volume          =     337.5249 (a.u.)^3
     number of atoms/cell      =            2
     number of atomic types    =            1
     number of electrons       =        22.00
     number of Kohn-Sham states=           15
     kinetic-energy cutoff     =      80.0000  Ry
     charge density cutoff     =     320.0000  Ry
     scf convergence threshold =      1.0E-08
     mixing beta               =       0.7000
     number of iterations used =            8  plain     mixing
     Exchange-correlation= SLA  PZ   NOGX NOGC
                           (   1   1   0   0   0   0   0)

     celldm(1)=   6.253104  celldm(2)=   0.000000  celldm(3)=   1.594000
     celldm(4)=   0.000000  celldm(5)=   0.000000  celldm(6)=   0.000000

     crystal axes: (cart. coord. in units of alat)
               a(1) = (   1.000000   0.000000   0.000000 )  
               a(2) = (  -0.500000   0.866025   0.000000 )  
               a(3) = (   0.000000   0.000000   1.594000 )  

     reciprocal axes: (cart. coord. in units 2 pi/alat)
               b(1) = (  1.000000  0.577350 -0.000000 )  
               b(2) = (  0.000000  1.154701  0.000000 )  
               b(3) = (  0.000000 -0.000000  0.627353 )  


     PseudoPot. # 1 for Sc read from file:
     ../../../Sc.pz-spn-kjpaw_psl.1.0.0.UPF
     MD5 check sum: 1f9095df0bb42a6568b4e9f256ff075f
     Pseudo is Projector augmented-wave + core cor, Zval = 11.0
     Generated using 'atomic' code by A. Dal Corso  v.7.1
     Shape of augmentation charge: PSQ
     Using radial grid of 1173 points,  6 beta functions with: 
                l(1) =   0
                l(2) =   0
                l(3) =   1
                l(4) =   1
                l(5) =   2
                l(6) =   2
     Q(r) pseudized with 0 coefficients 


     atomic species   valence    mass     pseudopotential
        Sc            11.00    44.59600     Sc( 1.00)

     24 Sym. Ops., with inversion, found (12 have fractional translation)



   Cartesian axes

     site n.     atom                  positions (alat units)
         1           Sc  tau(   1) = (   0.0000000   0.0000000   0.0000000  )
         2           Sc  tau(   2) = (   0.5000000   0.2886751   0.7970000  )

     number of k points=    21  Marzari-Vanderbilt smearing, width (Ry)=  0.0020
                       cart. coord. in units 2pi/alat
        k(    1) = (   0.0000000   0.0000000   0.0000000), wk =   0.0138889
        k(    2) = (   0.0000000   0.0000000   0.1568381), wk =   0.0277778
        k(    3) = (   0.0000000   0.0000000  -0.3136763), wk =   0.0138889
        k(    4) = (   0.0000000   0.1924501   0.0000000), wk =   0.0833333
        k(    5) = (   0.0000000   0.1924501   0.1568381), wk =   0.1666667
        k(    6) = (   0.0000000   0.1924501  -0.3136763), wk =   0.0833333
        k(    7) = (   0.0000000   0.3849002   0.0000000), wk =   0.0833333
        k(    8) = (   0.0000000   0.3849002   0.1568381), wk =   0.1666667
        k(    9) = (   0.0000000   0.3849002  -0.3136763), wk =   0.0833333
        k(   10) = (   0.0000000  -0.5773503   0.0000000), wk =   0.0416667
        k(   11) = (   0.0000000  -0.5773503   0.1568381), wk =   0.0833333
        k(   12) = (   0.0000000  -0.5773503  -0.3136763), wk =   0.0416667
        k(   13) = (   0.1666667   0.2886751   0.0000000), wk =   0.0833333
        k(   14) = (   0.1666667   0.2886751   0.1568381), wk =   0.1666667
        k(   15) = (   0.1666667   0.2886751  -0.3136763), wk =   0.0833333
        k(   16) = (   0.1666667   0.4811252   0.0000000), wk =   0.1666667
        k(   17) = (   0.1666667   0.4811252   0.1568381), wk =   0.3333333
        k(   18) = (   0.1666667   0.4811252  -0.3136763), wk =   0.1666667
        k(   19) = (   0.3333333   0.5773503   0.0000000), wk =   0.0277778
        k(   20) = (   0.3333333   0.5773503   0.1568381), wk =   0.0555556
        k(   21) = (   0.3333333   0.5773503  -0.3136763), wk =   0.0277778

     Dense  grid:    32631 G-vectors     FFT dimensions: (  36,  36,  60)

     Estimated max dynamical RAM per process >       5.41 MB

     Estimated total dynamical RAM >     208.46 MB

     Check: negative core charge=   -0.000015

     Initial potential from superposition of free atoms

     starting charge      21.9956, renormalised to      22.0000
     Starting wfcs are   20 randomized atomic wfcs
     Checking if some PAW data can be deallocated... 

     total cpu time spent up to now is        0.8 secs

     Self-consistent Calculation

     iteration #  1     ecut=    80.00 Ry     beta= 0.70
     Davidson diagonalization with overlap
     ethr =  1.00E-02,  avg # of iterations =  2.2

     Threshold (ethr) on eigenvalues was too large:
     Diagonalizing with lowered threshold

     Davidson diagonalization with overlap
     c_bands:  1 eigenvalues not converged
     c_bands:  2 eigenvalues not converged
     ethr =  1.79E-05,  avg # of iterations = 16.7

     total cpu time spent up to now is        2.0 secs

     total energy              =    -306.86850181 Ry
     estimated scf accuracy    <       0.01897312 Ry

     iteration #  2     ecut=    80.00 Ry     beta= 0.70
     Davidson diagonalization with overlap
     ethr =  8.62E-05,  avg # of iterations =  3.6

     total cpu time spent up to now is        2.3 secs

     total energy              =    -306.87265377 Ry
     estimated scf accuracy    <       0.00093112 Ry

     iteration #  3     ecut=    80.00 Ry     beta= 0.70
     Davidson diagonalization with overlap
     ethr =  4.23E-06,  avg # of iterations =  9.8

     total cpu time spent up to now is        2.8 secs

     total energy              =    -306.87371578 Ry
     estimated scf accuracy    <       0.00052876 Ry

     iteration #  4     ecut=    80.00 Ry     beta= 0.70
     Davidson diagonalization with overlap
     ethr =  2.40E-06,  avg # of iterations =  5.4

     total cpu time spent up to now is        3.1 secs

     total energy              =    -306.87394283 Ry
     estimated scf accuracy    <       0.00022678 Ry

     iteration #  5     ecut=    80.00 Ry     beta= 0.70
     Davidson diagonalization with overlap
     ethr =  1.03E-06,  avg # of iterations =  4.5

     total cpu time spent up to now is        3.4 secs

     total energy              =    -306.87401204 Ry
     estimated scf accuracy    <       0.00000101 Ry

     iteration #  6     ecut=    80.00 Ry     beta= 0.70
     Davidson diagonalization with overlap
     c_bands:  1 eigenvalues not converged
     c_bands:  1 eigenvalues not converged
     c_bands:  3 eigenvalues not converged
     c_bands:  2 eigenvalues not converged
     c_bands:  1 eigenvalues not converged
     c_bands:  3 eigenvalues not converged
     ethr =  4.59E-09,  avg # of iterations = 19.1

     total cpu time spent up to now is        4.3 secs

     total energy              =    -306.87402816 Ry
     estimated scf accuracy    <       0.00001605 Ry

     iteration #  7     ecut=    80.00 Ry     beta= 0.70
     Davidson diagonalization with overlap
     ethr =  4.59E-09,  avg # of iterations =  9.4

     total cpu time spent up to now is        4.7 secs

     total energy              =    -306.87403274 Ry
     estimated scf accuracy    <       0.00000035 Ry

     iteration #  8     ecut=    80.00 Ry     beta= 0.70
     Davidson diagonalization with overlap
     ethr =  1.61E-09,  avg # of iterations =  5.1

     total cpu time spent up to now is        5.0 secs

     total energy              =    -306.87403290 Ry
     estimated scf accuracy    <       0.00000012 Ry

     iteration #  9     ecut=    80.00 Ry     beta= 0.70
     Davidson diagonalization with overlap
     ethr =  5.38E-10,  avg # of iterations =  3.5

     total cpu time spent up to now is        5.3 secs

     total energy              =    -306.87403290 Ry
     estimated scf accuracy    <       0.00000002 Ry

     iteration # 10     ecut=    80.00 Ry     beta= 0.70
     Davidson diagonalization with overlap
     ethr =  1.05E-10,  avg # of iterations =  8.6

     total cpu time spent up to now is        5.7 secs

     End of self-consistent calculation

          k = 0.0000 0.0000 0.0000 (  4055 PWs)   bands (ev):

   -40.1364 -40.0721 -19.2143 -18.8914 -18.8914 -18.8331 -18.8331 -18.8052
     3.7534   7.1415   9.3037  10.3484  10.3484  10.4665  10.7523

          k = 0.0000 0.0000 0.1568 (  4078 PWs)   bands (ev):

   -40.1271 -40.0816 -19.1561 -18.8829 -18.8829 -18.8669 -18.8417 -18.8417
     4.1516   6.5420   9.2821  10.2190  10.2442  10.2443  10.5623

          k = 0.0000 0.0000-0.3137 (  4060 PWs)   bands (ev):

   -40.1044 -40.1044 -19.0132 -19.0132 -18.8623 -18.8623 -18.8623 -18.8623
     5.2303   5.2303   9.6691   9.6691  10.2906  10.2906  10.2906

          k = 0.0000 0.1925 0.0000 (  4083 PWs)   bands (ev):

   -40.1239 -40.0672 -19.1803 -18.9598 -18.9136 -18.9033 -18.8432 -18.8202
     4.3439   7.6204   8.8920   9.6689  10.4030  10.7755  10.8154

          k = 0.0000 0.1925 0.1568 (  4056 PWs)   bands (ev):

   -40.1156 -40.0755 -19.1381 -18.9473 -18.9340 -18.9033 -18.8536 -18.8465
     4.7177   7.0145   8.9383   9.7450  10.1757  10.4036  10.5379

          k = 0.0000 0.1925-0.3137 (  4076 PWs)   bands (ev):

   -40.0956 -40.0956 -19.0367 -19.0367 -18.8974 -18.8974 -18.8785 -18.8785
     5.7378   5.7378   9.4360   9.4360  10.0753  10.0754  10.6018

          k = 0.0000 0.3849 0.0000 (  4090 PWs)   bands (ev):

   -40.0965 -40.0596 -19.0988 -19.0980 -19.0368 -18.9553 -18.8657 -18.8641
     5.8651   8.1857   8.3344   8.9112  10.2095  10.2236  10.3581

          k = 0.0000 0.3849 0.1568 (  4074 PWs)   bands (ev):

   -40.0911 -40.0650 -19.1472 -19.0787 -19.0018 -18.9422 -18.8789 -18.8699
     6.1282   7.7102   8.5654   9.0415   9.9231  10.2479  10.5525

          k = 0.0000 0.3849-0.3137 (  4070 PWs)   bands (ev):

   -40.0781 -40.0781 -19.1339 -19.1339 -18.9148 -18.9148 -18.9107 -18.9107
     6.8368   6.8368   9.0037   9.0037   9.8962   9.8963  11.0766

          k = 0.0000-0.5774 0.0000 (  4072 PWs)   bands (ev):

   -40.0797 -40.0588 -19.1689 -19.1007 -19.0374 -18.9753 -18.9055 -18.8776
     7.2331   7.7782   8.1239   8.5498   9.9923  10.1675  10.5240

          k = 0.0000-0.5774 0.1568 (  4074 PWs)   bands (ev):

   -40.0767 -40.0618 -19.1953 -19.1411 -18.9811 -18.9611 -18.8938 -18.8920
     7.1965   7.6636   8.4985   8.5989  10.1408  10.2738  10.4260

          k = 0.0000-0.5774-0.3137 (  4100 PWs)   bands (ev):

   -40.0692 -40.0692 -19.1933 -19.1933 -18.9267 -18.9267 -18.9117 -18.9117
     7.3506   7.3506   8.8534   8.8534  10.0623  10.0627  11.1474

          k = 0.1667 0.2887 0.0000 (  4067 PWs)   bands (ev):

   -40.1038 -40.0610 -19.1214 -19.0335 -19.0258 -18.9344 -18.8798 -18.8503
     5.4169   8.2669   8.4979   8.9973  10.1391  10.1650  10.6036

          k = 0.1667 0.2887 0.1568 (  4082 PWs)   bands (ev):

   -40.0976 -40.0673 -19.1254 -19.0439 -18.9860 -18.9440 -18.8909 -18.8558
     5.7306   7.6837   8.6712   9.1242   9.9654  10.1812  10.5392

          k = 0.1667 0.2887-0.3137 (  4072 PWs)   bands (ev):

   -40.0825 -40.0825 -19.0955 -19.0955 -18.9349 -18.9349 -18.8930 -18.8930
     6.5870   6.5870   9.1411   9.1411   9.7877   9.7879  10.9363

          k = 0.1667 0.4811 0.0000 (  4088 PWs)   bands (ev):

   -40.0799 -40.0586 -19.1323 -19.0765 -19.0384 -18.9983 -18.9173 -18.9045
     7.0553   8.2437   8.2584   8.5359   9.8693  10.1115  10.4844

          k = 0.1667 0.4811 0.1568 (  4084 PWs)   bands (ev):

   -40.0767 -40.0617 -19.1580 -19.1168 -19.0142 -18.9634 -18.9331 -18.8810
     7.1936   7.9875   8.5109   8.7678   9.7513   9.8723  10.5927

          k = 0.1667 0.4811-0.3137 (  4086 PWs)   bands (ev):

   -40.0692 -40.0692 -19.1609 -19.1609 -18.9822 -18.9822 -18.8896 -18.8896
     7.5636   7.5636   8.9494   8.9495   9.5262   9.5265  11.0668

          k = 0.3333 0.5774 0.0000 (  4077 PWs)   bands (ev):

   -40.0649 -40.0649 -19.1152 -19.0537 -19.0537 -18.9867 -18.9666 -18.9666
     8.1623   8.1623   8.2558   8.3492   9.7645   9.7645  10.7674

          k = 0.3333 0.5774 0.1568 (  4077 PWs)   bands (ev):

   -40.0648 -40.0648 -19.1053 -19.1053 -19.0966 -19.0058 -18.9142 -18.9142
     8.3257   8.3385   8.3385   8.4094   9.4858   9.4858  10.7844

          k = 0.3333 0.5774-0.3137 (  4128 PWs)   bands (ev):

   -40.0648 -40.0648 -19.1373 -19.1373 -19.0514 -19.0514 -18.8813 -18.8813
     8.4358   8.4358   8.6579   8.6579   9.0799   9.0799  11.0786

     the Fermi energy is     8.8503 ev

!    total energy              =    -306.87403293 Ry
     total all-electron energy =     -3050.014804 Ry
     estimated scf accuracy    <          7.2E-09 Ry
     smearing contrib. (-TS)   =      -0.00002600 Ry
     internal energy E=F+TS    =    -306.87400693 Ry

     The total energy is F=E-TS. E is the sum of the following terms:
     one-electron contribution =     -74.41186915 Ry
     hartree contribution      =      42.28797013 Ry
     xc contribution           =     -34.52731483 Ry
     ewald contribution        =    -126.46581261 Ry
     one-center paw contrib.   =    -113.75698048 Ry

     convergence has been achieved in  10 iterations

     Writing all to output data dir sc_smearing.out/scandium.save/

     init_run     :      0.36s CPU      0.38s WALL (       1 calls)
     electrons    :      4.71s CPU      4.89s WALL (       1 calls)

     Called by init_run:
     wfcinit      :      0.10s CPU      0.12s WALL (       1 calls)
     potinit      :      0.09s CPU      0.09s WALL (       1 calls)
     hinit0       :      0.14s CPU      0.14s WALL (       1 calls)

     Called by electrons:
     c_bands      :      3.86s CPU      3.98s WALL (      11 calls)
     sum_band     :      0.38s CPU      0.39s WALL (      11 calls)
     v_of_rho     :      0.01s CPU      0.01s WALL (      11 calls)
     newd         :      0.06s CPU      0.06s WALL (      11 calls)
     PAW_pot      :      0.43s CPU      0.43s WALL (      11 calls)
     mix_rho      :      0.01s CPU      0.01s WALL (      11 calls)

     Called by c_bands:
     init_us_2    :      0.04s CPU      0.04s WALL (     253 calls)
     init_us_2:cp :      0.04s CPU      0.04s WALL (     253 calls)
     cegterg      :      3.48s CPU      3.55s WALL (     121 calls)

     Called by *egterg:
     cdiaghg      :      0.31s CPU      0.33s WALL (    1023 calls)
     h_psi        :      2.37s CPU      2.43s WALL (    1045 calls)
     s_psi        :      0.12s CPU      0.12s WALL (    1045 calls)
     g_psi        :      0.01s CPU      0.01s WALL (     913 calls)

     Called by h_psi:
     h_psi:calbec :      0.25s CPU      0.26s WALL (    1045 calls)
     vloc_psi     :      1.99s CPU      2.04s WALL (    1045 calls)
     add_vuspsi   :      0.12s CPU      0.12s WALL (    1045 calls)

     General routines
     calbec       :      0.29s CPU      0.30s WALL (    1166 calls)
     fft          :      0.03s CPU      0.03s WALL (      45 calls)
     ffts         :      0.00s CPU      0.00s WALL (      11 calls)
     fftw         :      2.06s CPU      2.12s WALL (   19139 calls)

     Parallel routines

     PWSCF        :      5.36s CPU      5.94s WALL


   This run was terminated on:  10:22:32   7Nov2023            

=------------------------------------------------------------------------------=
   JOB DONE.
=------------------------------------------------------------------------------=
