
     Program PWSCF v.7.2 starts on 21Jul2023 at 15:29:57 

     This program is part of the open-source Quantum ESPRESSO suite
     for quantum simulation of materials; please cite
         "P. Giannozzi et al., J. Phys.:Condens. Matter 21 395502 (2009);
         "P. Giannozzi et al., J. Phys.:Condens. Matter 29 465901 (2017);
         "P. Giannozzi et al., J. Chem. Phys. 152 154105 (2020);
          URL http://www.quantum-espresso.org", 
     in publications or presentations arising from this work. More details at
     http://www.quantum-espresso.org/quote

     Parallel version (MPI), running on    20 processors

     MPI processes distributed on     1 nodes
     316398 MiB available memory on the printing compute node when the environment starts

     Waiting for input...
     Reading input from standard input

     Current dimensions of program PWSCF are:
     Max number of different atomic species (ntypx) = 10
     Max number of k-points (npk) = 120000
     Max angular momentum in pseudopotentials (lmaxx) =  4
     file Sc.pz-spn-kjpaw_psl.1.0.0.UPF: wavefunction(s)  3S 3P 3D renormalized

     R & G space division:  proc/nbgrp/npool/nimage =      20
     Subspace diagonalization in iterative solution of the eigenvalue problem:
     a serial algorithm will be used


     Parallelization info
     --------------------
     sticks:   dense  smooth     PW     G-vecs:    dense   smooth      PW
     Min          47      42     12                 1943     1626     256
     Max          48      43     13                 1954     1637     263
     Sum         955     859    253                38995    32631    5203

     Using Slab Decomposition



     bravais-lattice index     =            4
     lattice parameter (alat)  =       6.2531  a.u.
     unit-cell volume          =     337.5249 (a.u.)^3
     number of atoms/cell      =            2
     number of atomic types    =            1
     number of electrons       =        22.00
     number of Kohn-Sham states=           15
     kinetic-energy cutoff     =      80.0000  Ry
     charge density cutoff     =     360.0000  Ry
     scf convergence threshold =      1.0E-08
     mixing beta               =       0.7000
     number of iterations used =            8  plain     mixing
     energy convergence thresh.=      1.0E-04
     force convergence thresh. =      1.0E-03
     press convergence thresh. =      5.0E-01
     Exchange-correlation= SLA  PZ   NOGX NOGC
                           (   1   1   0   0   0   0   0)
     nstep                     =           50


     celldm(1)=   6.253104  celldm(2)=   0.000000  celldm(3)=   1.594000
     celldm(4)=   0.000000  celldm(5)=   0.000000  celldm(6)=   0.000000

     crystal axes: (cart. coord. in units of alat)
               a(1) = (   1.000000   0.000000   0.000000 )  
               a(2) = (  -0.500000   0.866025   0.000000 )  
               a(3) = (   0.000000   0.000000   1.594000 )  

     reciprocal axes: (cart. coord. in units 2 pi/alat)
               b(1) = (  1.000000  0.577350 -0.000000 )  
               b(2) = (  0.000000  1.154701  0.000000 )  
               b(3) = (  0.000000 -0.000000  0.627353 )  


     PseudoPot. # 1 for Sc read from file:
     ../../../Sc.pz-spn-kjpaw_psl.1.0.0.UPF
     MD5 check sum: 1f9095df0bb42a6568b4e9f256ff075f
     Pseudo is Projector augmented-wave + core cor, Zval = 11.0
     Generated using 'atomic' code by A. Dal Corso  v.7.1
     Shape of augmentation charge: PSQ
     Using radial grid of 1173 points,  6 beta functions with: 
                l(1) =   0
                l(2) =   0
                l(3) =   1
                l(4) =   1
                l(5) =   2
                l(6) =   2
     Q(r) pseudized with 0 coefficients 


     atomic species   valence    mass     pseudopotential
        Sc            11.00    44.59600     Sc( 1.00)

     24 Sym. Ops., with inversion, found (12 have fractional translation)



   Cartesian axes

     site n.     atom                  positions (alat units)
         1           Sc  tau(   1) = (   0.0000000   0.0000000   0.0000000  )
         2           Sc  tau(   2) = (   0.5000000   0.2886751   0.7970000  )

     number of k points=    95  Marzari-Vanderbilt smearing, width (Ry)=  0.0200
                       cart. coord. in units 2pi/alat
        k(    1) = (   0.0000000   0.0000000   0.0000000), wk =   0.0017361
        k(    2) = (   0.0000000   0.0000000   0.0784191), wk =   0.0034722
        k(    3) = (   0.0000000   0.0000000   0.1568381), wk =   0.0034722
        k(    4) = (   0.0000000   0.0000000   0.2352572), wk =   0.0034722
        k(    5) = (   0.0000000   0.0000000  -0.3136763), wk =   0.0017361
        k(    6) = (   0.0000000   0.0962250   0.0000000), wk =   0.0104167
        k(    7) = (   0.0000000   0.0962250   0.0784191), wk =   0.0208333
        k(    8) = (   0.0000000   0.0962250   0.1568381), wk =   0.0208333
        k(    9) = (   0.0000000   0.0962250   0.2352572), wk =   0.0208333
        k(   10) = (   0.0000000   0.0962250  -0.3136763), wk =   0.0104167
        k(   11) = (   0.0000000   0.1924501   0.0000000), wk =   0.0104167
        k(   12) = (   0.0000000   0.1924501   0.0784191), wk =   0.0208333
        k(   13) = (   0.0000000   0.1924501   0.1568381), wk =   0.0208333
        k(   14) = (   0.0000000   0.1924501   0.2352572), wk =   0.0208333
        k(   15) = (   0.0000000   0.1924501  -0.3136763), wk =   0.0104167
        k(   16) = (   0.0000000   0.2886751   0.0000000), wk =   0.0104167
        k(   17) = (   0.0000000   0.2886751   0.0784191), wk =   0.0208333
        k(   18) = (   0.0000000   0.2886751   0.1568381), wk =   0.0208333
        k(   19) = (   0.0000000   0.2886751   0.2352572), wk =   0.0208333
        k(   20) = (   0.0000000   0.2886751  -0.3136763), wk =   0.0104167
        k(   21) = (   0.0000000   0.3849002   0.0000000), wk =   0.0104167
        k(   22) = (   0.0000000   0.3849002   0.0784191), wk =   0.0208333
        k(   23) = (   0.0000000   0.3849002   0.1568381), wk =   0.0208333
        k(   24) = (   0.0000000   0.3849002   0.2352572), wk =   0.0208333
        k(   25) = (   0.0000000   0.3849002  -0.3136763), wk =   0.0104167
        k(   26) = (   0.0000000   0.4811252   0.0000000), wk =   0.0104167
        k(   27) = (   0.0000000   0.4811252   0.0784191), wk =   0.0208333
        k(   28) = (   0.0000000   0.4811252   0.1568381), wk =   0.0208333
        k(   29) = (   0.0000000   0.4811252   0.2352572), wk =   0.0208333
        k(   30) = (   0.0000000   0.4811252  -0.3136763), wk =   0.0104167
        k(   31) = (   0.0000000  -0.5773503   0.0000000), wk =   0.0052083
        k(   32) = (   0.0000000  -0.5773503   0.0784191), wk =   0.0104167
        k(   33) = (   0.0000000  -0.5773503   0.1568381), wk =   0.0104167
        k(   34) = (   0.0000000  -0.5773503   0.2352572), wk =   0.0104167
        k(   35) = (   0.0000000  -0.5773503  -0.3136763), wk =   0.0052083
        k(   36) = (   0.0833333   0.1443376   0.0000000), wk =   0.0104167
        k(   37) = (   0.0833333   0.1443376   0.0784191), wk =   0.0208333
        k(   38) = (   0.0833333   0.1443376   0.1568381), wk =   0.0208333
        k(   39) = (   0.0833333   0.1443376   0.2352572), wk =   0.0208333
        k(   40) = (   0.0833333   0.1443376  -0.3136763), wk =   0.0104167
        k(   41) = (   0.0833333   0.2405626   0.0000000), wk =   0.0208333
        k(   42) = (   0.0833333   0.2405626   0.0784191), wk =   0.0416667
        k(   43) = (   0.0833333   0.2405626   0.1568381), wk =   0.0416667
        k(   44) = (   0.0833333   0.2405626   0.2352572), wk =   0.0416667
        k(   45) = (   0.0833333   0.2405626  -0.3136763), wk =   0.0208333
        k(   46) = (   0.0833333   0.3367877   0.0000000), wk =   0.0208333
        k(   47) = (   0.0833333   0.3367877   0.0784191), wk =   0.0416667
        k(   48) = (   0.0833333   0.3367877   0.1568381), wk =   0.0416667
        k(   49) = (   0.0833333   0.3367877   0.2352572), wk =   0.0416667
        k(   50) = (   0.0833333   0.3367877  -0.3136763), wk =   0.0208333
        k(   51) = (   0.0833333   0.4330127   0.0000000), wk =   0.0208333
        k(   52) = (   0.0833333   0.4330127   0.0784191), wk =   0.0416667
        k(   53) = (   0.0833333   0.4330127   0.1568381), wk =   0.0416667
        k(   54) = (   0.0833333   0.4330127   0.2352572), wk =   0.0416667
        k(   55) = (   0.0833333   0.4330127  -0.3136763), wk =   0.0208333
        k(   56) = (   0.0833333   0.5292377   0.0000000), wk =   0.0208333
        k(   57) = (   0.0833333   0.5292377   0.0784191), wk =   0.0416667
        k(   58) = (   0.0833333   0.5292377   0.1568381), wk =   0.0416667
        k(   59) = (   0.0833333   0.5292377   0.2352572), wk =   0.0416667
        k(   60) = (   0.0833333   0.5292377  -0.3136763), wk =   0.0208333
        k(   61) = (   0.1666667   0.2886751   0.0000000), wk =   0.0104167
        k(   62) = (   0.1666667   0.2886751   0.0784191), wk =   0.0208333
        k(   63) = (   0.1666667   0.2886751   0.1568381), wk =   0.0208333
        k(   64) = (   0.1666667   0.2886751   0.2352572), wk =   0.0208333
        k(   65) = (   0.1666667   0.2886751  -0.3136763), wk =   0.0104167
        k(   66) = (   0.1666667   0.3849002   0.0000000), wk =   0.0208333
        k(   67) = (   0.1666667   0.3849002   0.0784191), wk =   0.0416667
        k(   68) = (   0.1666667   0.3849002   0.1568381), wk =   0.0416667
        k(   69) = (   0.1666667   0.3849002   0.2352572), wk =   0.0416667
        k(   70) = (   0.1666667   0.3849002  -0.3136763), wk =   0.0208333
        k(   71) = (   0.1666667   0.4811252   0.0000000), wk =   0.0208333
        k(   72) = (   0.1666667   0.4811252   0.0784191), wk =   0.0416667
        k(   73) = (   0.1666667   0.4811252   0.1568381), wk =   0.0416667
        k(   74) = (   0.1666667   0.4811252   0.2352572), wk =   0.0416667
        k(   75) = (   0.1666667   0.4811252  -0.3136763), wk =   0.0208333
        k(   76) = (   0.1666667   0.5773503   0.0000000), wk =   0.0104167
        k(   77) = (   0.1666667   0.5773503   0.0784191), wk =   0.0208333
        k(   78) = (   0.1666667   0.5773503   0.1568381), wk =   0.0208333
        k(   79) = (   0.1666667   0.5773503   0.2352572), wk =   0.0208333
        k(   80) = (   0.1666667   0.5773503  -0.3136763), wk =   0.0104167
        k(   81) = (   0.2500000   0.4330127   0.0000000), wk =   0.0104167
        k(   82) = (   0.2500000   0.4330127   0.0784191), wk =   0.0208333
        k(   83) = (   0.2500000   0.4330127   0.1568381), wk =   0.0208333
        k(   84) = (   0.2500000   0.4330127   0.2352572), wk =   0.0208333
        k(   85) = (   0.2500000   0.4330127  -0.3136763), wk =   0.0104167
        k(   86) = (   0.2500000   0.5292377   0.0000000), wk =   0.0208333
        k(   87) = (   0.2500000   0.5292377   0.0784191), wk =   0.0416667
        k(   88) = (   0.2500000   0.5292377   0.1568381), wk =   0.0416667
        k(   89) = (   0.2500000   0.5292377   0.2352572), wk =   0.0416667
        k(   90) = (   0.2500000   0.5292377  -0.3136763), wk =   0.0208333
        k(   91) = (   0.3333333   0.5773503   0.0000000), wk =   0.0034722
        k(   92) = (   0.3333333   0.5773503   0.0784191), wk =   0.0069444
        k(   93) = (   0.3333333   0.5773503   0.1568381), wk =   0.0069444
        k(   94) = (   0.3333333   0.5773503   0.2352572), wk =   0.0069444
        k(   95) = (   0.3333333   0.5773503  -0.3136763), wk =   0.0034722

     Dense  grid:    38995 G-vectors     FFT dimensions: (  45,  45,  64)

     Smooth grid:    32631 G-vectors     FFT dimensions: (  36,  36,  60)

     Estimated max dynamical RAM per process >      14.98 MB

     Estimated total dynamical RAM >     299.54 MB

     Check: negative core charge=   -0.000008

     Initial potential from superposition of free atoms

     starting charge      21.9956, renormalised to      22.0000
     Starting wfcs are   20 randomized atomic wfcs
     Checking if some PAW data can be deallocated... 

     total cpu time spent up to now is        1.1 secs

     Self-consistent Calculation

     iteration #  1     ecut=    80.00 Ry     beta= 0.70
     Davidson diagonalization with overlap
     ethr =  1.00E-02,  avg # of iterations =  2.2

     Threshold (ethr) on eigenvalues was too large:
     Diagonalizing with lowered threshold

     Davidson diagonalization with overlap
     c_bands:  1 eigenvalues not converged
     c_bands:  2 eigenvalues not converged
     c_bands:  2 eigenvalues not converged
     c_bands:  1 eigenvalues not converged
     c_bands:  1 eigenvalues not converged
     c_bands:  1 eigenvalues not converged
     c_bands:  1 eigenvalues not converged
     c_bands:  4 eigenvalues not converged
     c_bands:  4 eigenvalues not converged
     c_bands:  1 eigenvalues not converged
     c_bands:  1 eigenvalues not converged
     c_bands:  4 eigenvalues not converged
     c_bands:  4 eigenvalues not converged
     c_bands:  3 eigenvalues not converged
     c_bands:  3 eigenvalues not converged
     c_bands:  2 eigenvalues not converged
     c_bands:  1 eigenvalues not converged
     c_bands:  3 eigenvalues not converged
     c_bands:  3 eigenvalues not converged
     c_bands:  5 eigenvalues not converged
     c_bands:  5 eigenvalues not converged
     c_bands:  1 eigenvalues not converged
     c_bands:  4 eigenvalues not converged
     c_bands:  5 eigenvalues not converged
     c_bands:  3 eigenvalues not converged
     ethr =  1.90E-05,  avg # of iterations = 17.5

     total cpu time spent up to now is        8.7 secs

     total energy              =    -306.86691210 Ry
     estimated scf accuracy    <       0.02019885 Ry

     iteration #  2     ecut=    80.00 Ry     beta= 0.70
     Davidson diagonalization with overlap
     ethr =  9.18E-05,  avg # of iterations =  4.4

     total cpu time spent up to now is       10.6 secs

     total energy              =    -306.87188900 Ry
     estimated scf accuracy    <       0.00150726 Ry

     iteration #  3     ecut=    80.00 Ry     beta= 0.70
     Davidson diagonalization with overlap
     c_bands:  1 eigenvalues not converged
     ethr =  6.85E-06,  avg # of iterations =  8.3

     total cpu time spent up to now is       13.3 secs

     total energy              =    -306.87294943 Ry
     estimated scf accuracy    <       0.00030187 Ry

     iteration #  4     ecut=    80.00 Ry     beta= 0.70
     Davidson diagonalization with overlap
     c_bands:  1 eigenvalues not converged
     c_bands:  2 eigenvalues not converged
     ethr =  1.37E-06,  avg # of iterations =  7.2

     total cpu time spent up to now is       15.5 secs

     total energy              =    -306.87313756 Ry
     estimated scf accuracy    <       0.00015177 Ry

     iteration #  5     ecut=    80.00 Ry     beta= 0.70
     Davidson diagonalization with overlap
     c_bands:  1 eigenvalues not converged
     c_bands:  2 eigenvalues not converged
     ethr =  6.90E-07,  avg # of iterations =  7.2

     total cpu time spent up to now is       17.5 secs

     total energy              =    -306.87322208 Ry
     estimated scf accuracy    <       0.00002125 Ry

     iteration #  6     ecut=    80.00 Ry     beta= 0.70
     Davidson diagonalization with overlap
     ethr =  9.66E-08,  avg # of iterations =  7.2

     total cpu time spent up to now is       19.5 secs

     total energy              =    -306.87322006 Ry
     estimated scf accuracy    <       0.00002511 Ry

     iteration #  7     ecut=    80.00 Ry     beta= 0.70
     Davidson diagonalization with overlap
     ethr =  9.66E-08,  avg # of iterations =  3.3

     total cpu time spent up to now is       21.1 secs

     total energy              =    -306.87322330 Ry
     estimated scf accuracy    <       0.00000121 Ry

     iteration #  8     ecut=    80.00 Ry     beta= 0.70
     Davidson diagonalization with overlap
     c_bands:  2 eigenvalues not converged
     ethr =  5.51E-09,  avg # of iterations = 13.3

     total cpu time spent up to now is       24.6 secs

     total energy              =    -306.87322811 Ry
     estimated scf accuracy    <       0.00000417 Ry

     iteration #  9     ecut=    80.00 Ry     beta= 0.70
     Davidson diagonalization with overlap
     ethr =  5.51E-09,  avg # of iterations =  1.5

     total cpu time spent up to now is       25.9 secs

     total energy              =    -306.87322660 Ry
     estimated scf accuracy    <       0.00000267 Ry

     iteration # 10     ecut=    80.00 Ry     beta= 0.70
     Davidson diagonalization with overlap
     ethr =  5.51E-09,  avg # of iterations =  6.5

     total cpu time spent up to now is       27.9 secs

     End of self-consistent calculation

          k = 0.0000 0.0000 0.0000 (  4055 PWs)   bands (ev):

   -40.1393 -40.0750 -19.2243 -18.8907 -18.8907 -18.8324 -18.8324 -18.8153
     3.7531   7.1394   9.3007  10.3503  10.3504  10.4604  10.7539

          k = 0.0000 0.0000 0.0784 (  4055 PWs)   bands (ev):

   -40.1369 -40.0775 -19.2092 -18.8885 -18.8885 -18.8346 -18.8346 -18.8314
     3.8543   6.9862   9.2699  10.3075  10.3076  10.3952  10.6983

          k = 0.0000 0.0000 0.1568 (  4078 PWs)   bands (ev):

   -40.1300 -40.0845 -19.1661 -18.8822 -18.8822 -18.8770 -18.8409 -18.8409
     4.1513   6.5412   9.2776  10.2125  10.2451  10.2451  10.5634

          k = 0.0000 0.0000 0.2353 (  4078 PWs)   bands (ev):

   -40.1196 -40.0950 -19.1010 -18.9445 -18.8728 -18.8728 -18.8504 -18.8504
     4.6230   5.9063   9.4173   9.9500  10.2331  10.2335  10.4109

          k = 0.0000 0.0000-0.3137 (  4060 PWs)   bands (ev):

   -40.1073 -40.1073 -19.0233 -19.0233 -18.8616 -18.8616 -18.8616 -18.8616
     5.2302   5.2302   9.6631   9.6631  10.2911  10.2911  10.2912

          k = 0.0000 0.0962 0.0000 (  4067 PWs)   bands (ev):

   -40.1360 -40.0736 -19.2154 -18.9090 -18.8968 -18.8514 -18.8349 -18.8191
     3.9044   7.2693   9.1762  10.0810  10.4597  10.6285  10.6902

          k = 0.0000 0.0962 0.0784 (  4065 PWs)   bands (ev):

   -40.1337 -40.0760 -19.2013 -18.9063 -18.8945 -18.8595 -18.8373 -18.8287
     4.0041   7.1157   9.1477  10.0771  10.4052  10.5027  10.6289

          k = 0.0000 0.0962 0.1568 (  4062 PWs)   bands (ev):

   -40.1269 -40.0828 -19.1608 -18.8994 -18.8928 -18.8878 -18.8451 -18.8440
     4.2969   6.6685   9.1697  10.0829  10.2315  10.3319  10.5259

          k = 0.0000 0.0962 0.2353 (  4059 PWs)   bands (ev):

   -40.1169 -40.0930 -19.0997 -18.9541 -18.8872 -18.8778 -18.8592 -18.8541
     4.7624   6.0340   9.3305   9.9166  10.1297  10.3174  10.3754

          k = 0.0000 0.0962-0.3137 (  4072 PWs)   bands (ev):

   -40.1049 -40.1049 -19.0271 -19.0271 -18.8735 -18.8735 -18.8659 -18.8659
     5.3628   5.3628   9.5989   9.5990  10.2302  10.2312  10.3751

          k = 0.0000 0.1925 0.0000 (  4083 PWs)   bands (ev):

   -40.1268 -40.0701 -19.1903 -18.9591 -18.9129 -18.9025 -18.8425 -18.8303
     4.3436   7.6177   8.8896   9.6699  10.4044  10.7785  10.8106

          k = 0.0000 0.1925 0.0784 (  4068 PWs)   bands (ev):

   -40.1246 -40.0723 -19.1792 -18.9550 -18.9121 -18.9102 -18.8452 -18.8366
     4.4385   7.4642   8.8731   9.6892  10.3955  10.5400  10.6277

          k = 0.0000 0.1925 0.1568 (  4056 PWs)   bands (ev):

   -40.1185 -40.0784 -19.1476 -18.9484 -18.9353 -18.9026 -18.8531 -18.8528
     4.7174   7.0137   8.9340   9.7460  10.1703  10.4045  10.5374

          k = 0.0000 0.1925 0.2353 (  4076 PWs)   bands (ev):

   -40.1094 -40.0877 -19.1002 -18.9890 -18.9218 -18.8912 -18.8752 -18.8643
     5.1617   6.3875   9.1353   9.7343   9.9537  10.2562  10.5305

          k = 0.0000 0.1925-0.3137 (  4076 PWs)   bands (ev):

   -40.0985 -40.0985 -19.0442 -19.0442 -18.8991 -18.8991 -18.8778 -18.8778
     5.7375   5.7375   9.4315   9.4315  10.0752  10.0754  10.6016

          k = 0.0000 0.2887 0.0000 (  4059 PWs)   bands (ev):

   -40.1136 -40.0658 -19.1524 -19.0283 -18.9704 -18.9341 -18.8534 -18.8490
     5.0251   8.0246   8.5816   9.2456  10.1852  10.4661  10.5660

          k = 0.0000 0.2887 0.0784 (  4069 PWs)   bands (ev):

   -40.1118 -40.0676 -19.1490 -19.0196 -18.9795 -18.9310 -18.8565 -18.8523
     5.1103   7.8765   8.5924   9.2763  10.1574  10.4064  10.5791

          k = 0.0000 0.2887 0.1568 (  4066 PWs)   bands (ev):

   -40.1066 -40.0728 -19.1372 -19.0154 -18.9846 -18.9223 -18.8653 -18.8640
     5.3607   7.4429   8.7095   9.3528  10.0115  10.2952  10.6286

          k = 0.0000 0.2887 0.2353 (  4076 PWs)   bands (ev):

   -40.0989 -40.0806 -19.1152 -19.0478 -18.9530 -18.9093 -18.8859 -18.8784
     5.7598   6.8652   8.9362   9.3902   9.8527  10.1257  10.7294

          k = 0.0000 0.2887-0.3137 (  4072 PWs)   bands (ev):

   -40.0897 -40.0897 -19.0840 -19.0840 -18.9171 -18.9171 -18.8939 -18.8939
     6.2775   6.2775   9.2085   9.2085   9.9281   9.9281  10.8822

          k = 0.0000 0.3849 0.0000 (  4090 PWs)   bands (ev):

   -40.0994 -40.0625 -19.1080 -19.0981 -19.0360 -18.9546 -18.8743 -18.8649
     5.8645   8.1839   8.3321   8.9110  10.2110  10.2188  10.3536

          k = 0.0000 0.3849 0.0784 (  4079 PWs)   bands (ev):

   -40.0980 -40.0639 -19.1345 -19.0672 -19.0404 -18.9512 -18.8742 -18.8684
     5.9314   8.0425   8.4011   8.9525  10.0659  10.2975  10.4031

          k = 0.0000 0.3849 0.1568 (  4074 PWs)   bands (ev):

   -40.0940 -40.0679 -19.1511 -19.0798 -19.0069 -18.9415 -18.8784 -18.8782
     6.1276   7.7098   8.5621   9.0407   9.9203  10.2472  10.5482

          k = 0.0000 0.3849 0.2353 (  4076 PWs)   bands (ev):

   -40.0880 -40.0739 -19.1515 -19.1102 -18.9611 -18.9271 -18.8933 -18.8928
     6.4382   7.2808   8.7849   9.0943   9.8332  10.0783  10.7784

          k = 0.0000 0.3849-0.3137 (  4070 PWs)   bands (ev):

   -40.0810 -40.0810 -19.1366 -19.1366 -18.9215 -18.9215 -18.9099 -18.9099
     6.8365   6.8365   9.0009   9.0009   9.8949   9.8949  11.0733

          k = 0.0000 0.4811 0.0000 (  4090 PWs)   bands (ev):

   -40.0876 -40.0614 -19.1494 -19.0829 -19.0668 -18.9693 -18.9014 -18.8736
     6.7155   8.0182   8.1749   8.6614  10.0482  10.2123  10.4243

          k = 0.0000 0.4811 0.0784 (  4083 PWs)   bands (ev):

   -40.0866 -40.0624 -19.1635 -19.0968 -19.0420 -18.9656 -18.8980 -18.8773
     6.7472   7.9224   8.2739   8.6917  10.0536  10.2743  10.3780

          k = 0.0000 0.4811 0.1568 (  4074 PWs)   bands (ev):

   -40.0838 -40.0652 -19.1822 -19.1253 -18.9979 -18.9554 -18.8943 -18.8877
     6.8436   7.7269   8.4673   8.7886  10.0407  10.2553  10.4570

          k = 0.0000 0.4811 0.2353 (  4075 PWs)   bands (ev):

   -40.0795 -40.0695 -19.1884 -19.1560 -18.9545 -18.9399 -18.9033 -18.9001
     7.0055   7.4785   8.6983   8.8990   9.9840  10.1057  10.7503

          k = 0.0000 0.4811-0.3137 (  4082 PWs)   bands (ev):

   -40.0745 -40.0745 -19.1790 -19.1790 -18.9217 -18.9217 -18.9204 -18.9204
     7.2247   7.2247   8.8814   8.8814   9.9873   9.9874  11.1346

          k = 0.0000-0.5774 0.0000 (  4072 PWs)   bands (ev):

   -40.0826 -40.0617 -19.1682 -19.0999 -19.0475 -18.9746 -18.9156 -18.8768
     7.2300   7.7827   8.1216   8.5462   9.9874  10.1630  10.5235

          k = 0.0000-0.5774 0.0784 (  4082 PWs)   bands (ev):

   -40.0818 -40.0625 -19.1793 -19.1126 -19.0285 -18.9709 -18.9104 -18.8806
     7.2094   7.7596   8.2328   8.5435  10.0427  10.2284  10.4525

          k = 0.0000-0.5774 0.1568 (  4074 PWs)   bands (ev):

   -40.0796 -40.0647 -19.1965 -19.1417 -18.9892 -18.9604 -18.9025 -18.8913
     7.1942   7.6668   8.4960   8.5945  10.1385  10.2729  10.4216

          k = 0.0000-0.5774 0.2353 (  4084 PWs)   bands (ev):

   -40.0762 -40.0681 -19.2033 -19.1726 -18.9496 -18.9446 -18.9072 -18.9037
     7.2378   7.5102   8.7326   8.7645  10.0904  10.1457  10.7327

          k = 0.0000-0.5774-0.3137 (  4100 PWs)   bands (ev):

   -40.0721 -40.0721 -19.1950 -19.1950 -18.9259 -18.9259 -18.9194 -18.9194
     7.3504   7.3504   8.8502   8.8502  10.0615  10.0617  11.1430

          k = 0.0833 0.1443 0.0000 (  4063 PWs)   bands (ev):

   -40.1297 -40.0712 -19.1984 -18.9397 -18.9159 -18.8795 -18.8425 -18.8265
     4.1999   7.5108   8.9751   9.7816  10.4852  10.6889  10.7595

          k = 0.0833 0.1443 0.0784 (  4062 PWs)   bands (ev):

   -40.1275 -40.0734 -19.1862 -18.9360 -18.9153 -18.8874 -18.8451 -18.8332
     4.2965   7.3569   8.9542   9.7968  10.4932  10.5084  10.5829

          k = 0.0833 0.1443 0.1568 (  4068 PWs)   bands (ev):

   -40.1212 -40.0798 -19.1514 -18.9292 -18.9256 -18.8974 -18.8523 -18.8491
     4.5803   6.9064   9.0024   9.8451  10.1966  10.4334  10.4907

          k = 0.0833 0.1443 0.2353 (  4069 PWs)   bands (ev):

   -40.1117 -40.0893 -19.0992 -18.9765 -18.9099 -18.8907 -18.8677 -18.8630
     5.0323   6.2757   9.1931   9.8103   9.9870  10.2859  10.4768

          k = 0.0833 0.1443-0.3137 (  4072 PWs)   bands (ev):

   -40.1006 -40.1006 -19.0374 -19.0374 -18.8922 -18.8922 -18.8743 -18.8743
     5.6172   5.6172   9.4859   9.4860  10.1158  10.1159  10.5323

          k = 0.0833 0.2406 0.0000 (  4060 PWs)   bands (ev):

   -40.1185 -40.0673 -19.1669 -18.9946 -18.9609 -18.9135 -18.8554 -18.8416
     4.7623   7.9080   8.6962   9.3708  10.2556  10.4608  10.7508

          k = 0.0833 0.2406 0.0784 (  4061 PWs)   bands (ev):

   -40.1166 -40.0692 -19.1596 -18.9887 -18.9649 -18.9167 -18.8586 -18.8449
     4.8519   7.7562   8.6920   9.3984  10.2648  10.3826  10.6771

          k = 0.0833 0.2406 0.1568 (  4065 PWs)   bands (ev):

   -40.1111 -40.0748 -19.1385 -18.9895 -18.9657 -18.9175 -18.8673 -18.8560
     5.1152   7.3073   8.7866   9.4739  10.0855  10.3012  10.6261

          k = 0.0833 0.2406 0.2353 (  4069 PWs)   bands (ev):

   -40.1028 -40.0831 -19.1059 -19.0237 -18.9409 -18.9109 -18.8806 -18.8737
     5.5351   6.7001   9.0093   9.5179   9.8707  10.1407  10.6778

          k = 0.0833 0.2406-0.3137 (  4066 PWs)   bands (ev):

   -40.0930 -40.0930 -19.0656 -19.0656 -18.9147 -18.9147 -18.8877 -18.8877
     6.0805   6.0805   9.2999   9.3000   9.9458   9.9459  10.7836

          k = 0.0833 0.3368 0.0000 (  4077 PWs)   bands (ev):

   -40.1048 -40.0635 -19.1254 -19.0628 -19.0156 -18.9451 -18.8693 -18.8639
     5.5301   8.2264   8.4407   8.9952  10.1518  10.2048  10.5100

          k = 0.0833 0.3368 0.0784 (  4077 PWs)   bands (ev):

   -40.1032 -40.0651 -19.1323 -19.0490 -19.0191 -18.9449 -18.8741 -18.8628
     5.6066   8.0779   8.4827   9.0329  10.0613  10.2716  10.4927

          k = 0.0833 0.3368 0.1568 (  4072 PWs)   bands (ev):

   -40.0988 -40.0696 -19.1377 -19.0545 -18.9987 -18.9402 -18.8847 -18.8666
     5.8309   7.6811   8.6305   9.1229   9.9185  10.2207  10.5626

          k = 0.0833 0.3368 0.2353 (  4067 PWs)   bands (ev):

   -40.0921 -40.0763 -19.1309 -19.0831 -18.9606 -18.9294 -18.8986 -18.8802
     6.1875   7.1694   8.8563   9.1952   9.7846  10.0281  10.7526

          k = 0.0833 0.3368-0.3137 (  4068 PWs)   bands (ev):

   -40.0842 -40.0842 -19.1114 -19.1114 -18.9308 -18.9308 -18.8993 -18.8993
     6.6485   6.6485   9.0927   9.0927   9.8294   9.8295  10.9897

          k = 0.0833 0.4330 0.0000 (  4079 PWs)   bands (ev):

   -40.0916 -40.0615 -19.1231 -19.0814 -19.0634 -18.9695 -18.8913 -18.8812
     6.3937   8.1982   8.2572   8.7311  10.0371  10.2777  10.3217

          k = 0.0833 0.4330 0.0784 (  4082 PWs)   bands (ev):

   -40.0904 -40.0626 -19.1422 -19.0815 -19.0459 -18.9669 -18.8927 -18.8806
     6.4459   8.0661   8.3511   8.7822   9.9859  10.2614  10.3650

          k = 0.0833 0.4330 0.1568 (  4084 PWs)   bands (ev):

   -40.0872 -40.0659 -19.1621 -19.1056 -19.0042 -18.9567 -18.9016 -18.8793
     6.5986   7.8128   8.5202   8.8950   9.8824  10.1545  10.5177

          k = 0.0833 0.4330 0.2353 (  4077 PWs)   bands (ev):

   -40.0823 -40.0708 -19.1676 -19.1346 -18.9679 -18.9384 -18.9146 -18.8861
     6.8401   7.4888   8.7440   8.9888   9.7954   9.9686  10.7688

          k = 0.0833 0.4330-0.3137 (  4068 PWs)   bands (ev):

   -40.0765 -40.0765 -19.1574 -19.1574 -18.9431 -18.9431 -18.9040 -18.9040
     7.1484   7.1484   8.9429   8.9429   9.8129   9.8131  11.0943

          k = 0.0833 0.5292 0.0000 (  4075 PWs)   bands (ev):

   -40.0827 -40.0616 -19.1580 -19.0910 -19.0478 -18.9829 -18.9153 -18.8882
     7.1520   7.9463   8.1632   8.5449   9.9716  10.1216  10.5189

          k = 0.0833 0.5292 0.0784 (  4079 PWs)   bands (ev):

   -40.0819 -40.0624 -19.1691 -19.1042 -19.0304 -18.9774 -18.9123 -18.8894
     7.1567   7.8948   8.2655   8.5668   9.9871  10.1288  10.5057

          k = 0.0833 0.5292 0.1568 (  4078 PWs)   bands (ev):

   -40.0796 -40.0647 -19.1863 -19.1333 -18.9995 -18.9593 -18.9152 -18.8887
     7.1883   7.7695   8.4846   8.6719   9.9878  10.0676  10.5781

          k = 0.0833 0.5292 0.2353 (  4081 PWs)   bands (ev):

   -40.0762 -40.0681 -19.1933 -19.1636 -18.9733 -18.9346 -18.9261 -18.8907
     7.2723   7.5933   8.7230   8.8465   9.8813   9.9531  10.8210

          k = 0.0833 0.5292-0.3137 (  4092 PWs)   bands (ev):

   -40.0721 -40.0721 -19.1854 -19.1854 -18.9508 -18.9508 -18.9045 -18.9045
     7.4137   7.4137   8.8914   8.8914   9.8449   9.8450  11.1719

          k = 0.1667 0.2887 0.0000 (  4067 PWs)   bands (ev):

   -40.1067 -40.0639 -19.1315 -19.0328 -19.0251 -18.9337 -18.8790 -18.8604
     5.4164   8.2630   8.4955   8.9992  10.1422  10.1604  10.5989

          k = 0.1667 0.2887 0.0784 (  4068 PWs)   bands (ev):

   -40.1051 -40.0656 -19.1333 -19.0292 -19.0195 -18.9389 -18.8821 -18.8597
     5.4961   8.1097   8.5252   9.0328  10.1101  10.1915  10.5442

          k = 0.1667 0.2887 0.1568 (  4082 PWs)   bands (ev):

   -40.1005 -40.0702 -19.1323 -19.0446 -18.9884 -18.9446 -18.8902 -18.8631
     5.7301   7.6828   8.6671   9.1257   9.9605  10.1820  10.5359

          k = 0.1667 0.2887 0.2353 (  4079 PWs)   bands (ev):

   -40.0935 -40.0772 -19.1212 -19.0710 -18.9540 -18.9416 -18.8995 -18.8763
     6.1029   7.1367   8.8948   9.2233   9.7778   9.9868  10.7099

          k = 0.1667 0.2887-0.3137 (  4072 PWs)   bands (ev):

   -40.0854 -40.0854 -19.0993 -19.0993 -18.9369 -18.9369 -18.8956 -18.8956
     6.5866   6.5866   9.1385   9.1385   9.7859   9.7859  10.9335

          k = 0.1667 0.3849 0.0000 (  4083 PWs)   bands (ev):

   -40.0938 -40.0617 -19.0893 -19.0885 -19.0596 -18.9662 -18.9015 -18.8860
     6.2278   8.3439   8.4189   8.6999   9.9480  10.2287  10.3572

          k = 0.1667 0.3849 0.0784 (  4085 PWs)   bands (ev):

   -40.0926 -40.0629 -19.1189 -19.0795 -19.0357 -18.9709 -18.9057 -18.8803
     6.2911   8.2249   8.4786   8.7453   9.9118  10.2525  10.3068

          k = 0.1667 0.3849 0.1568 (  4082 PWs)   bands (ev):

   -40.0891 -40.0664 -19.1393 -19.0935 -18.9973 -18.9718 -18.9142 -18.8746
     6.4760   7.9367   8.6236   8.8543   9.8161  10.0735  10.4324

          k = 0.1667 0.3849 0.2353 (  4082 PWs)   bands (ev):

   -40.0839 -40.0716 -19.1449 -19.1158 -18.9765 -18.9577 -18.9161 -18.8795
     6.7678   7.5499   8.8257   8.9799   9.6879   9.8305  10.6656

          k = 0.1667 0.3849-0.3137 (  4078 PWs)   bands (ev):

   -40.0777 -40.0777 -19.1357 -19.1357 -18.9627 -18.9627 -18.8969 -18.8969
     7.1398   7.1398   8.9946   8.9946   9.6570   9.6570  10.9745

          k = 0.1667 0.4811 0.0000 (  4088 PWs)   bands (ev):

   -40.0828 -40.0616 -19.1315 -19.0758 -19.0485 -18.9976 -18.9166 -18.9146
     7.0540   8.2454   8.2563   8.5331   9.8647  10.1068  10.4865

          k = 0.1667 0.4811 0.0784 (  4086 PWs)   bands (ev):

   -40.0820 -40.0624 -19.1420 -19.0924 -19.0305 -18.9922 -18.9256 -18.9015
     7.0892   8.1450   8.3474   8.6045   9.8369  10.0437  10.5052

          k = 0.1667 0.4811 0.1568 (  4084 PWs)   bands (ev):

   -40.0797 -40.0647 -19.1597 -19.1179 -19.0165 -18.9675 -18.9342 -18.8879
     7.1926   7.9879   8.5094   8.7650   9.7479   9.8693  10.5928

          k = 0.1667 0.4811 0.2353 (  4090 PWs)   bands (ev):

   -40.0762 -40.0681 -19.1685 -19.1443 -19.0018 -18.9652 -18.9190 -18.8843
     7.3562   7.7854   8.7382   8.9338   9.6188   9.6378  10.7803

          k = 0.1667 0.4811-0.3137 (  4086 PWs)   bands (ev):

   -40.0721 -40.0721 -19.1630 -19.1630 -18.9831 -18.9831 -18.8953 -18.8953
     7.5632   7.5632   8.9472   8.9472   9.5240   9.5240  11.0645

          k = 0.1667 0.5774 0.0000 (  4073 PWs)   bands (ev):

   -40.0778 -40.0624 -19.1470 -19.0801 -19.0277 -19.0111 -18.9309 -18.9219
     7.5566   8.0289   8.2285   8.4380   9.9088   9.9403  10.6149

          k = 0.1667 0.5774 0.0784 (  4086 PWs)   bands (ev):

   -40.0772 -40.0630 -19.1554 -19.0939 -19.0330 -18.9876 -18.9375 -18.9110
     7.5484   8.0160   8.3205   8.4702   9.8724   9.9048  10.6279

          k = 0.1667 0.5774 0.1568 (  4090 PWs)   bands (ev):

   -40.0756 -40.0647 -19.1705 -19.1238 -19.0271 -18.9508 -18.9505 -18.8948
     7.5549   7.9543   8.5518   8.5905   9.7658   9.7725  10.7055

          k = 0.1667 0.5774 0.2353 (  4087 PWs)   bands (ev):

   -40.0731 -40.0672 -19.1786 -19.1534 -19.0114 -18.9694 -18.9168 -18.8872
     7.6094   7.8405   8.7976   8.8352   9.5536   9.5940  10.8842

          k = 0.1667 0.5774-0.3137 (  4098 PWs)   bands (ev):

   -40.0701 -40.0701 -19.1731 -19.1731 -18.9908 -18.9908 -18.8944 -18.8944
     7.7125   7.7125   8.9776   8.9776   9.4319   9.4319  11.1536

          k = 0.2500 0.4330 0.0000 (  4111 PWs)   bands (ev):

   -40.0828 -40.0615 -19.1087 -19.0790 -19.0488 -18.9970 -18.9375 -18.9143
     7.0182   8.3092   8.4411   8.4817   9.7887  10.1168  10.4534

          k = 0.2500 0.4330 0.0784 (  4095 PWs)   bands (ev):

   -40.0820 -40.0623 -19.1108 -19.1071 -19.0165 -19.0072 -18.9398 -18.9036
     7.0651   8.2472   8.4782   8.5578   9.7727  10.0125  10.4635

          k = 0.2500 0.4330 0.1568 (  4087 PWs)   bands (ev):

   -40.0797 -40.0646 -19.1355 -19.1200 -19.0183 -18.9834 -18.9393 -18.8879
     7.2002   8.1095   8.5878   8.7164   9.7061   9.7691  10.5204

          k = 0.2500 0.4330 0.2353 (  4087 PWs)   bands (ev):

   -40.0762 -40.0681 -19.1499 -19.1362 -19.0145 -18.9845 -18.9162 -18.8826
     7.4070   7.9053   8.7579   8.8929   9.5114   9.5699  10.6797

          k = 0.2500 0.4330-0.3137 (  4088 PWs)   bands (ev):

   -40.0722 -40.0722 -19.1490 -19.1490 -19.0002 -19.0002 -18.8925 -18.8925
     7.6561   7.6561   8.9260   8.9260   9.4297   9.4297  10.9650

          k = 0.2500 0.5292 0.0000 (  4082 PWs)   bands (ev):

   -40.0744 -40.0635 -19.1239 -19.0678 -19.0317 -19.0126 -18.9602 -18.9435
     7.7095   8.2590   8.3110   8.3763   9.7629   9.8911  10.6776

          k = 0.2500 0.5292 0.0784 (  4084 PWs)   bands (ev):

   -40.0740 -40.0639 -19.1270 -19.0867 -19.0471 -18.9872 -18.9645 -18.9268
     7.7377   8.2317   8.3437   8.4650   9.7226   9.7960  10.6816

          k = 0.2500 0.5292 0.1568 (  4092 PWs)   bands (ev):

   -40.0728 -40.0651 -19.1393 -19.1138 -19.0568 -18.9863 -18.9396 -18.9025
     7.8157   8.1882   8.4677   8.6483   9.5465   9.6085  10.7168

          k = 0.2500 0.5292 0.2353 (  4100 PWs)   bands (ev):

   -40.0710 -40.0668 -19.1517 -19.1379 -19.0468 -19.0051 -18.9080 -18.8881
     7.9248   8.1285   8.6721   8.8860   9.2465   9.4055  10.8309

          k = 0.2500 0.5292-0.3137 (  4100 PWs)   bands (ev):

   -40.0689 -40.0689 -19.1519 -19.1519 -19.0270 -19.0270 -18.8897 -18.8897
     8.0378   8.0378   8.9374   8.9374   9.1553   9.1553  11.0605

          k = 0.3333 0.5774 0.0000 (  4077 PWs)   bands (ev):

   -40.0678 -40.0678 -19.1144 -19.0530 -19.0530 -18.9859 -18.9767 -18.9767
     8.1580   8.1580   8.2618   8.3474   9.7597   9.7597  10.7722

          k = 0.3333 0.5774 0.0784 (  4104 PWs)   bands (ev):

   -40.0678 -40.0678 -19.1096 -19.0746 -19.0746 -18.9909 -18.9549 -18.9549
     8.2038   8.2038   8.2807   8.3660   9.6821   9.6821  10.7709

          k = 0.3333 0.5774 0.1568 (  4077 PWs)   bands (ev):

   -40.0678 -40.0678 -19.1077 -19.1077 -19.0958 -19.0049 -18.9212 -18.9212
     8.3311   8.3341   8.3341   8.4089   9.4816   9.4817  10.7877

          k = 0.3333 0.5774 0.2353 (  4104 PWs)   bands (ev):

   -40.0677 -40.0677 -19.1317 -19.1317 -19.0751 -19.0259 -18.8966 -18.8966
     8.3933   8.4433   8.5219   8.5219   9.2316   9.2316  10.8741

          k = 0.3333 0.5774-0.3137 (  4128 PWs)   bands (ev):

   -40.0678 -40.0678 -19.1403 -19.1403 -19.0506 -19.0506 -18.8877 -18.8877
     8.4388   8.4388   8.6525   8.6525   9.0771   9.0771  11.0784

     the Fermi energy is     8.8143 ev

!    total energy              =    -306.87322736 Ry
     total all-electron energy =     -3050.013998 Ry
     estimated scf accuracy    <          1.9E-10 Ry
     smearing contrib. (-TS)   =      -0.00104031 Ry
     internal energy E=F+TS    =    -306.87218705 Ry

     The total energy is F=E-TS. E is the sum of the following terms:
     one-electron contribution =     -74.40716709 Ry
     hartree contribution      =      42.28491825 Ry
     xc contribution           =     -34.52715045 Ry
     ewald contribution        =    -126.46581261 Ry
     one-center paw contrib.   =    -113.75697514 Ry

     convergence has been achieved in  10 iterations

     Forces acting on atoms (cartesian axes, Ry/au):

     atom    1 type  1   force =     0.00000000    0.00000000    0.00000000
     atom    2 type  1   force =    -0.00000000    0.00000000    0.00000000
     The non-local contrib.  to forces
     atom    1 type  1   force =     0.00000000    0.00000000    0.00000000
     atom    2 type  1   force =    -0.00000000    0.00000000    0.00000000
     The ionic contribution  to forces
     atom    1 type  1   force =     0.00000000   -0.00000000    0.00000000
     atom    2 type  1   force =    -0.00000000    0.00000000    0.00000000
     The local contribution  to forces
     atom    1 type  1   force =    -0.00000000    0.00000000    0.00000000
     atom    2 type  1   force =    -0.00000000    0.00000000    0.00000000
     The core correction contribution to forces
     atom    1 type  1   force =    -0.00000000   -0.00000000    0.00000000
     atom    2 type  1   force =     0.00000000   -0.00000000    0.00000000
     The Hubbard contrib.    to forces
     atom    1 type  1   force =     0.00000000    0.00000000    0.00000000
     atom    2 type  1   force =     0.00000000    0.00000000    0.00000000
     The SCF correction term to forces
     atom    1 type  1   force =    -0.00000000    0.00000000    0.00000000
     atom    2 type  1   force =    -0.00000000   -0.00000000    0.00000000

     Total force =     0.000000     Total SCF correction =     0.000000


     Computing stress (Cartesian axis) and pressure

          total   stress  (Ry/bohr**3)                   (kbar)     P=      -55.49
  -0.00033696   0.00000000   0.00000000          -49.57        0.00        0.00
   0.00000000  -0.00033696   0.00000000            0.00      -49.57        0.00
   0.00000000   0.00000000  -0.00045770            0.00        0.00      -67.33


     BFGS Geometry Optimization
     Energy error            =      0.0E+00 Ry
     Gradient error          =      1.6E-27 Ry/Bohr
     Cell gradient error     =      6.7E+01 kbar

     number of scf cycles    =   1
     number of bfgs steps    =   0

     enthalpy           new  =    -306.8732273592 Ry

     new trust radius        =       0.0420436657 bohr
     new conv_thr            =       0.0000000100 Ry

     new unit-cell volume =    328.06492 a.u.^3 (    48.61420 Ang^3 )
     density =      3.04657 g/cm^3

CELL_PARAMETERS (alat=  6.25310370)
   0.991575954   0.000000000   0.000000000
  -0.495787977   0.858729966   0.000000000
   0.000000000   0.000000000   1.575760792

ATOMIC_POSITIONS (crystal)
Sc            0.0000000000        0.0000000000       -0.0000000000
Sc            0.6666666667        0.3333333333        0.5000000000



     Writing config-only to output data dir sc_vcrelax.out/scandium.save/
     NEW-OLD atomic charge density approx. for the potential

     Check: negative core charge=   -0.000009
     extrapolated charge   21.36574, renormalised to   22.00000

     total cpu time spent up to now is       29.5 secs

     Self-consistent Calculation

     iteration #  1     ecut=    80.00 Ry     beta= 0.70
     Davidson diagonalization with overlap
     c_bands:  1 eigenvalues not converged
     c_bands:  1 eigenvalues not converged
     c_bands:  1 eigenvalues not converged
     c_bands:  1 eigenvalues not converged
     c_bands:  3 eigenvalues not converged
     c_bands:  2 eigenvalues not converged
     c_bands:  1 eigenvalues not converged
     c_bands:  2 eigenvalues not converged
     c_bands:  2 eigenvalues not converged
     c_bands:  3 eigenvalues not converged
     c_bands:  4 eigenvalues not converged
     c_bands:  1 eigenvalues not converged
     c_bands:  3 eigenvalues not converged
     c_bands:  3 eigenvalues not converged
     c_bands:  1 eigenvalues not converged
     c_bands:  1 eigenvalues not converged
     c_bands:  2 eigenvalues not converged
     c_bands:  2 eigenvalues not converged
     c_bands:  1 eigenvalues not converged
     c_bands:  4 eigenvalues not converged
     c_bands:  2 eigenvalues not converged
     c_bands:  1 eigenvalues not converged
     c_bands:  2 eigenvalues not converged
     c_bands:  2 eigenvalues not converged
     c_bands:  3 eigenvalues not converged
     c_bands:  5 eigenvalues not converged
     c_bands:  2 eigenvalues not converged
     c_bands:  2 eigenvalues not converged
     c_bands:  3 eigenvalues not converged
     c_bands:  3 eigenvalues not converged
     c_bands:  3 eigenvalues not converged
     c_bands:  3 eigenvalues not converged
     c_bands:  3 eigenvalues not converged
     c_bands:  4 eigenvalues not converged
     c_bands:  4 eigenvalues not converged
     c_bands:  5 eigenvalues not converged
     c_bands:  2 eigenvalues not converged
     c_bands:  2 eigenvalues not converged
     c_bands:  4 eigenvalues not converged
     c_bands:  4 eigenvalues not converged
     c_bands:  2 eigenvalues not converged
     c_bands:  1 eigenvalues not converged
     c_bands:  5 eigenvalues not converged
     c_bands:  5 eigenvalues not converged
     c_bands:  3 eigenvalues not converged
     c_bands:  2 eigenvalues not converged
     c_bands:  2 eigenvalues not converged
     c_bands:  2 eigenvalues not converged
     c_bands:  2 eigenvalues not converged
     c_bands:  1 eigenvalues not converged
     c_bands:  2 eigenvalues not converged
     c_bands:  3 eigenvalues not converged
     c_bands:  1 eigenvalues not converged
     c_bands:  5 eigenvalues not converged
     c_bands:  2 eigenvalues not converged
     ethr =  1.00E-06,  avg # of iterations = 20.0

     total cpu time spent up to now is       46.7 secs

     total energy              =    -306.76287191 Ry
     estimated scf accuracy    <       0.08185135 Ry

     iteration #  2     ecut=    80.00 Ry     beta= 0.70
     Davidson diagonalization with overlap
     ethr =  3.72E-04,  avg # of iterations =  6.9

     total cpu time spent up to now is      109.1 secs

     total energy              =    -306.87954264 Ry
     estimated scf accuracy    <       0.13569032 Ry

     iteration #  3     ecut=    80.00 Ry     beta= 0.70
     Davidson diagonalization with overlap
     ethr =  3.72E-04,  avg # of iterations =  1.2

     total cpu time spent up to now is      140.1 secs

     total energy              =    -306.87404286 Ry
     estimated scf accuracy    <       0.04133344 Ry

     iteration #  4     ecut=    80.00 Ry     beta= 0.70
     Davidson diagonalization with overlap
     ethr =  1.88E-04,  avg # of iterations =  2.4

     total cpu time spent up to now is      154.9 secs

     total energy              =    -306.87295985 Ry
     estimated scf accuracy    <       0.01727450 Ry

     iteration #  5     ecut=    80.00 Ry     beta= 0.70
     Davidson diagonalization with overlap
     ethr =  7.85E-05,  avg # of iterations =  2.7

     total cpu time spent up to now is      165.6 secs

     total energy              =    -306.87468340 Ry
     estimated scf accuracy    <       0.00729109 Ry

     iteration #  6     ecut=    80.00 Ry     beta= 0.70
     Davidson diagonalization with overlap
     ethr =  3.31E-05,  avg # of iterations =  4.6

     total cpu time spent up to now is      170.9 secs

     total energy              =    -306.87642958 Ry
     estimated scf accuracy    <       0.00394977 Ry

     iteration #  7     ecut=    80.00 Ry     beta= 0.70
     Davidson diagonalization with overlap
     ethr =  1.80E-05,  avg # of iterations =  2.9

     total cpu time spent up to now is      178.6 secs

     total energy              =    -306.87744331 Ry
     estimated scf accuracy    <       0.00303415 Ry

     iteration #  8     ecut=    80.00 Ry     beta= 0.70
     Davidson diagonalization with overlap
     ethr =  1.38E-05,  avg # of iterations =  1.7

     total cpu time spent up to now is      182.8 secs

     total energy              =    -306.87778249 Ry
     estimated scf accuracy    <       0.00384726 Ry

     iteration #  9     ecut=    80.00 Ry     beta= 0.70
     Davidson diagonalization with overlap
     ethr =  1.38E-05,  avg # of iterations =  1.1

     total cpu time spent up to now is      184.9 secs

     total energy              =    -306.88125135 Ry
     estimated scf accuracy    <       0.00419607 Ry

     iteration # 10     ecut=    80.00 Ry     beta= 0.70
     Davidson diagonalization with overlap
     ethr =  1.38E-05,  avg # of iterations =  2.1

     total cpu time spent up to now is      205.4 secs

     total energy              =    -306.88220126 Ry
     estimated scf accuracy    <       0.01067349 Ry

     iteration # 11     ecut=    80.00 Ry     beta= 0.70
     Davidson diagonalization with overlap
     ethr =  1.38E-05,  avg # of iterations =  1.9

     total cpu time spent up to now is      242.5 secs

     total energy              =    -306.88089002 Ry
     estimated scf accuracy    <       0.01267856 Ry

     iteration # 12     ecut=    80.00 Ry     beta= 0.70
     Davidson diagonalization with overlap
     ethr =  1.38E-05,  avg # of iterations =  1.1

     total cpu time spent up to now is      269.1 secs

     total energy              =    -306.87206838 Ry
     estimated scf accuracy    <       0.01052951 Ry

     iteration # 13     ecut=    80.00 Ry     beta= 0.70
     Davidson diagonalization with overlap
     ethr =  1.38E-05,  avg # of iterations =  6.6

     total cpu time spent up to now is      313.9 secs

     total energy              =    -306.87433051 Ry
     estimated scf accuracy    <       0.00599174 Ry

     iteration # 14     ecut=    80.00 Ry     beta= 0.70
     Davidson diagonalization with overlap
     ethr =  1.38E-05,  avg # of iterations =  6.6

     total cpu time spent up to now is      346.0 secs

     total energy              =    -306.88257499 Ry
     estimated scf accuracy    <       0.00766694 Ry

     iteration # 15     ecut=    80.00 Ry     beta= 0.70
     Davidson diagonalization with overlap
     ethr =  1.38E-05,  avg # of iterations =  2.9

     total cpu time spent up to now is      381.1 secs

     total energy              =    -306.88252146 Ry
     estimated scf accuracy    <       0.01329278 Ry

     iteration # 16     ecut=    80.00 Ry     beta= 0.70
     Davidson diagonalization with overlap
     ethr =  1.38E-05,  avg # of iterations =  1.5

     total cpu time spent up to now is      409.7 secs

     total energy              =    -306.87841114 Ry
     estimated scf accuracy    <       0.01305975 Ry

     iteration # 17     ecut=    80.00 Ry     beta= 0.70
     Davidson diagonalization with overlap
     ethr =  1.38E-05,  avg # of iterations =  1.7

     total cpu time spent up to now is      426.6 secs

     total energy              =    -306.87580841 Ry
     estimated scf accuracy    <       0.00628663 Ry

     iteration # 18     ecut=    80.00 Ry     beta= 0.70
     Davidson diagonalization with overlap
     ethr =  1.38E-05,  avg # of iterations =  2.6

     total cpu time spent up to now is      435.5 secs

     total energy              =    -306.87515618 Ry
     estimated scf accuracy    <       0.00154330 Ry

     iteration # 19     ecut=    80.00 Ry     beta= 0.70
     Davidson diagonalization with overlap
     ethr =  7.02E-06,  avg # of iterations =  7.2

     total cpu time spent up to now is      445.4 secs

     total energy              =    -306.87631665 Ry
     estimated scf accuracy    <       0.00043374 Ry

     iteration # 20     ecut=    80.00 Ry     beta= 0.70
     Davidson diagonalization with overlap
     ethr =  1.97E-06,  avg # of iterations =  3.0

     total cpu time spent up to now is      453.2 secs

     total energy              =    -306.87640823 Ry
     estimated scf accuracy    <       0.00004662 Ry

     iteration # 21     ecut=    80.00 Ry     beta= 0.70
     Davidson diagonalization with overlap
     ethr =  2.12E-07,  avg # of iterations =  6.7

     total cpu time spent up to now is      462.1 secs

     total energy              =    -306.87641930 Ry
     estimated scf accuracy    <       0.00004807 Ry

     iteration # 22     ecut=    80.00 Ry     beta= 0.70
     Davidson diagonalization with overlap
     ethr =  2.12E-07,  avg # of iterations =  4.2

     total cpu time spent up to now is      468.8 secs

     total energy              =    -306.87643166 Ry
     estimated scf accuracy    <       0.00000041 Ry

     iteration # 23     ecut=    80.00 Ry     beta= 0.70
     Davidson diagonalization with overlap
     c_bands:  1 eigenvalues not converged
     c_bands:  2 eigenvalues not converged
     c_bands:  1 eigenvalues not converged
     c_bands:  1 eigenvalues not converged
     c_bands:  1 eigenvalues not converged
     c_bands:  1 eigenvalues not converged
     c_bands:  1 eigenvalues not converged
     ethr =  1.86E-09,  avg # of iterations = 16.5

     total cpu time spent up to now is      475.2 secs

     total energy              =    -306.87643479 Ry
     estimated scf accuracy    <       0.00000455 Ry

     iteration # 24     ecut=    80.00 Ry     beta= 0.70
     Davidson diagonalization with overlap
     ethr =  1.86E-09,  avg # of iterations = 10.1

     total cpu time spent up to now is      480.5 secs

     total energy              =    -306.87643728 Ry
     estimated scf accuracy    <       0.00000133 Ry

     iteration # 25     ecut=    80.00 Ry     beta= 0.70
     Davidson diagonalization with overlap
     ethr =  1.86E-09,  avg # of iterations =  1.3

     total cpu time spent up to now is      483.5 secs

     total energy              =    -306.87643707 Ry
     estimated scf accuracy    <       0.00000156 Ry

     iteration # 26     ecut=    80.00 Ry     beta= 0.70
     Davidson diagonalization with overlap
     ethr =  1.86E-09,  avg # of iterations =  1.0

     total cpu time spent up to now is      487.0 secs

     total energy              =    -306.87643649 Ry
     estimated scf accuracy    <       0.00000119 Ry

     iteration # 27     ecut=    80.00 Ry     beta= 0.70
     Davidson diagonalization with overlap
     ethr =  1.86E-09,  avg # of iterations =  4.4

     total cpu time spent up to now is      491.4 secs

     total energy              =    -306.87643656 Ry
     estimated scf accuracy    <       0.00000014 Ry

     iteration # 28     ecut=    80.00 Ry     beta= 0.70
     Davidson diagonalization with overlap
     ethr =  6.49E-10,  avg # of iterations =  4.7

     total cpu time spent up to now is      494.4 secs

     End of self-consistent calculation

          k = 0.0000 0.0000 0.0000 (  4055 PWs)   bands (ev):

   -39.7454 -39.6719 -18.8563 -18.4874 -18.4874 -18.4225 -18.4225 -18.4030
     4.0227   7.4315   9.7000  10.7057  10.7058  10.8405  11.1309

          k = 0.0000-0.0000 0.0793 (  4055 PWs)   bands (ev):

   -39.7427 -39.6747 -18.8396 -18.4849 -18.4849 -18.4249 -18.4249 -18.4209
     4.1270   7.2871   9.6554  10.6599  10.6599  10.7723  11.0718

          k = 0.0000-0.0000 0.1587 (  4078 PWs)   bands (ev):

   -39.7347 -39.6827 -18.7919 -18.4779 -18.4779 -18.4715 -18.4320 -18.4320
     4.4327   6.8560   9.6385  10.5814  10.5934  10.5934  10.9287

          k = 0.0000-0.0000 0.2380 (  4078 PWs)   bands (ev):

   -39.7229 -39.6947 -18.7199 -18.5465 -18.4674 -18.4674 -18.4425 -18.4425
     4.9170   6.2231   9.7656  10.3081  10.5804  10.5808  10.7676

          k =-0.0000 0.0000-0.3173 (  4060 PWs)   bands (ev):

   -39.7088 -39.7088 -18.6338 -18.6338 -18.4550 -18.4550 -18.4550 -18.4550
     5.5377   5.5377  10.0124  10.0125  10.6414  10.6414  10.6414

          k =-0.0000 0.0970-0.0000 (  4067 PWs)   bands (ev):

   -39.7417 -39.6704 -18.8465 -18.5073 -18.4940 -18.4433 -18.4252 -18.4072
     4.1775   7.5639   9.5636  10.4287  10.8190  11.0063  11.0707

          k =-0.0000 0.0970 0.0793 (  4065 PWs)   bands (ev):

   -39.7390 -39.6731 -18.8309 -18.5044 -18.4914 -18.4523 -18.4279 -18.4179
     4.2803   7.4195   9.5216  10.4239  10.7606  10.8777  11.0014

          k =-0.0000 0.0970 0.1587 (  4062 PWs)   bands (ev):

   -39.7313 -39.6809 -18.7861 -18.4966 -18.4893 -18.4840 -18.4361 -18.4353
     4.5815   6.9863   9.5198  10.4291  10.5950  10.6827  10.8930

          k =-0.0000 0.0970 0.2380 (  4059 PWs)   bands (ev):

   -39.7198 -39.6925 -18.7186 -18.5573 -18.4830 -18.4729 -18.4519 -18.4465
     5.0592   6.3533   9.6697  10.2687  10.4768  10.6671  10.7350

          k =-0.0000 0.0970-0.3173 (  4072 PWs)   bands (ev):

   -39.7062 -39.7062 -18.6381 -18.6381 -18.4678 -18.4678 -18.4597 -18.4597
     5.6728   5.6728   9.9410   9.9410  10.5823  10.5831  10.7280

          k =-0.0000 0.1941-0.0000 (  4083 PWs)   bands (ev):

   -39.7313 -39.6665 -18.8187 -18.5622 -18.5117 -18.4993 -18.4333 -18.4197
     4.6265   7.9175   9.2516  10.0005  10.7728  11.1482  11.1744

          k =-0.0000 0.1941 0.0793 (  4068 PWs)   bands (ev):

   -39.7289 -39.6690 -18.8065 -18.5576 -18.5100 -18.5087 -18.4363 -18.4265
     4.7240   7.7749   9.2207  10.0203  10.7637  10.9099  10.9869

          k =-0.0000 0.1941 0.1587 (  4056 PWs)   bands (ev):

   -39.7219 -39.6760 -18.7716 -18.5506 -18.5358 -18.5003 -18.4448 -18.4445
     5.0102   7.3385   9.2612  10.0783  10.5292  10.7741  10.8928

          k =-0.0000 0.1941 0.2380 (  4076 PWs)   bands (ev):

   -39.7114 -39.6866 -18.7192 -18.5959 -18.5205 -18.4876 -18.4688 -18.4576
     5.4653   6.7122   9.4575  10.0669  10.3055  10.6186  10.8865

          k =-0.0000 0.1941-0.3173 (  4076 PWs)   bands (ev):

   -39.6990 -39.6990 -18.6572 -18.6572 -18.4953 -18.4953 -18.4726 -18.4726
     6.0530   6.0530   9.7592   9.7592  10.4286  10.4287  10.9618

          k =-0.0000 0.2911-0.0000 (  4059 PWs)   bands (ev):

   -39.7165 -39.6618 -18.7769 -18.6379 -18.5733 -18.5349 -18.4450 -18.4406
     5.3211   8.3253   8.9152   9.5644  10.5514  10.8320  10.9204

          k =-0.0000 0.2911 0.0793 (  4069 PWs)   bands (ev):

   -39.7144 -39.6639 -18.7731 -18.6283 -18.5836 -18.5315 -18.4485 -18.4440
     5.4081   8.1913   8.9118   9.5962  10.5188  10.7753  10.9341

          k =-0.0000 0.2911 0.1587 (  4066 PWs)   bands (ev):

   -39.7085 -39.6698 -18.7600 -18.6241 -18.5893 -18.5218 -18.4583 -18.4565
     5.6636   7.7701   9.0172   9.6754  10.3641  10.6652  10.9858

          k =-0.0000 0.2911 0.2380 (  4076 PWs)   bands (ev):

   -39.6997 -39.6787 -18.7356 -18.6604 -18.5543 -18.5073 -18.4804 -18.4729
     6.0701   7.1910   9.2467   9.7140  10.2009  10.4877  11.0913

          k =-0.0000 0.2911-0.3173 (  4072 PWs)   bands (ev):

   -39.6892 -39.6892 -18.7009 -18.7009 -18.5147 -18.5147 -18.4901 -18.4901
     6.5962   6.5962   9.5270   9.5270  10.2804  10.2804  11.2516

          k =-0.0000 0.3882-0.0000 (  4090 PWs)   bands (ev):

   -39.7005 -39.6582 -18.7278 -18.7143 -18.6449 -18.5573 -18.4687 -18.4574
     6.1718   8.4735   8.6410   9.2313  10.5837  10.5850  10.7000

          k =-0.0000 0.3882 0.0793 (  4079 PWs)   bands (ev):

   -39.6989 -39.6598 -18.7561 -18.6808 -18.6502 -18.5536 -18.4684 -18.4613
     6.2390   8.3458   8.6995   9.2740  10.4277  10.6720  10.7516

          k =-0.0000 0.3882 0.1587 (  4074 PWs)   bands (ev):

   -39.6943 -39.6644 -18.7744 -18.6944 -18.6140 -18.5428 -18.4725 -18.4722
     6.4360   8.0203   8.8615   9.3649  10.2755  10.6201  10.9029

          k =-0.0000 0.3882 0.2380 (  4076 PWs)   bands (ev):

   -39.6874 -39.6713 -18.7748 -18.7286 -18.5633 -18.5267 -18.4886 -18.4885
     6.7478   7.5925   9.0934   9.4198  10.1855  10.4435  11.1430

          k =-0.0000 0.3882-0.3173 (  4070 PWs)   bands (ev):

   -39.6794 -39.6794 -18.7581 -18.7581 -18.5195 -18.5195 -18.5076 -18.5076
     7.1474   7.1474   9.3204   9.3204  10.2512  10.2512  11.4507

          k =-0.0000 0.4852-0.0000 (  4090 PWs)   bands (ev):

   -39.6871 -39.6572 -18.7704 -18.6960 -18.6821 -18.5734 -18.4989 -18.4668
     7.0259   8.3002   8.4669   8.9895  10.4156  10.5536  10.8058

          k =-0.0000 0.4852 0.0793 (  4083 PWs)   bands (ev):

   -39.6860 -39.6583 -18.7866 -18.7118 -18.6538 -18.5694 -18.4948 -18.4709
     7.0547   8.2101   8.5676   9.0168  10.4237  10.6182  10.7570

          k =-0.0000 0.4852 0.1587 (  4074 PWs)   bands (ev):

   -39.6828 -39.6615 -18.8077 -18.7440 -18.6045 -18.5579 -18.4900 -18.4825
     7.1446   8.0191   8.7693   9.1134  10.4133  10.6300  10.8089

          k =-0.0000 0.4852 0.2380 (  4075 PWs)   bands (ev):

   -39.6779 -39.6664 -18.8147 -18.7784 -18.5562 -18.5407 -18.4999 -18.4961
     7.3005   7.7708   9.0114   9.2285  10.3515  10.4800  11.1148

          k =-0.0000 0.4852-0.3173 (  4082 PWs)   bands (ev):

   -39.6721 -39.6721 -18.8042 -18.8042 -18.5204 -18.5204 -18.5183 -18.5183
     7.5169   7.5169   9.2065   9.2065  10.3571  10.3572  11.5160

          k = 0.0000-0.5823 0.0000 (  4072 PWs)   bands (ev):

   -39.6815 -39.6575 -18.7910 -18.7144 -18.6607 -18.5792 -18.5147 -18.4702
     7.5354   8.0692   8.4076   8.8767  10.3554  10.5025  10.9088

          k = 0.0000-0.5823 0.0793 (  4082 PWs)   bands (ev):

   -39.6806 -39.6584 -18.8038 -18.7289 -18.6392 -18.5751 -18.5085 -18.4744
     7.5069   8.0491   8.5306   8.8665  10.4166  10.5707  10.8339

          k = 0.0000-0.5823 0.1587 (  4074 PWs)   bands (ev):

   -39.6780 -39.6610 -18.8232 -18.7618 -18.5951 -18.5634 -18.4991 -18.4863
     7.4802   7.9588   8.8151   8.9076  10.5236  10.6457  10.7722

          k = 0.0000-0.5823 0.2380 (  4084 PWs)   bands (ev):

   -39.6741 -39.6649 -18.8309 -18.7965 -18.5508 -18.5458 -18.5041 -18.5000
     7.5183   7.7979   9.0479   9.0974  10.4585  10.5344  11.0969

          k = 0.0000-0.5823-0.3173 (  4100 PWs)   bands (ev):

   -39.6695 -39.6695 -18.8216 -18.8216 -18.5250 -18.5250 -18.5173 -18.5173
     7.6324   7.6324   9.1775   9.1775  10.4397  10.4397  11.5253

          k = 0.0840 0.1456-0.0000 (  4063 PWs)   bands (ev):

   -39.7347 -39.6677 -18.8277 -18.5408 -18.5149 -18.4741 -18.4334 -18.4155
     4.4797   7.8093   9.3449  10.1163  10.8543  11.0565  11.1238

          k = 0.0840 0.1456 0.0793 (  4062 PWs)   bands (ev):

   -39.7321 -39.6703 -18.8143 -18.5367 -18.5142 -18.4831 -18.4362 -18.4228
     4.5791   7.6657   9.3095  10.1316  10.8635  10.8768  10.9436

          k = 0.0840 0.1456 0.1587 (  4068 PWs)   bands (ev):

   -39.7249 -39.6776 -18.7758 -18.5296 -18.5251 -18.4945 -18.4444 -18.4402
     4.8706   7.2294   9.3360  10.1807  10.5566  10.7993  10.8489

          k = 0.0840 0.1456 0.2380 (  4069 PWs)   bands (ev):

   -39.7141 -39.6885 -18.7180 -18.5822 -18.5076 -18.4869 -18.4608 -18.4563
     5.3339   6.5991   9.5198  10.1475  10.3380  10.6462  10.8324

          k = 0.0840 0.1456-0.3173 (  4072 PWs)   bands (ev):

   -39.7013 -39.7013 -18.6497 -18.6497 -18.4879 -18.4879 -18.4687 -18.4687
     5.9313   5.9313   9.8175   9.8175  10.4687  10.4688  10.8904

          k = 0.0840 0.2426-0.0000 (  4060 PWs)   bands (ev):

   -39.7220 -39.6634 -18.7928 -18.6009 -18.5638 -18.5117 -18.4474 -18.4323
     5.0538   8.2107   9.0404   9.6909  10.6212  10.8166  11.1186

          k = 0.0840 0.2426 0.0793 (  4061 PWs)   bands (ev):

   -39.7198 -39.6656 -18.7848 -18.5944 -18.5682 -18.5155 -18.4509 -18.4358
     5.1455   8.0721   9.0214   9.7195  10.6276  10.7437  11.0386

          k = 0.0840 0.2426 0.1587 (  4065 PWs)   bands (ev):

   -39.7135 -39.6720 -18.7616 -18.5957 -18.5688 -18.5165 -18.4606 -18.4478
     5.4149   7.6364   9.1000   9.7976  10.4383  10.6696  10.9847

          k = 0.0840 0.2426 0.2380 (  4069 PWs)   bands (ev):

   -39.7040 -39.6816 -18.7254 -18.6341 -18.5412 -18.5090 -18.4752 -18.4673
     5.8438   7.0276   9.3227   9.8430  10.2189  10.5011  11.0393

          k = 0.0840 0.2426-0.3173 (  4066 PWs)   bands (ev):

   -39.6928 -39.6928 -18.6808 -18.6808 -18.5124 -18.5124 -18.4832 -18.4832
     6.3994   6.3994   9.6205   9.6205  10.2968  10.2968  11.1500

          k = 0.0840 0.3396-0.0000 (  4077 PWs)   bands (ev):

   -39.7065 -39.6593 -18.7470 -18.6756 -18.6230 -18.5466 -18.4623 -18.4571
     5.8343   8.5249   8.7595   9.3092  10.5205  10.5568  10.8719

          k = 0.0840 0.3396 0.0793 (  4077 PWs)   bands (ev):

   -39.7047 -39.6611 -18.7544 -18.6606 -18.6269 -18.5466 -18.4677 -18.4555
     5.9118   8.3927   8.7874   9.3485  10.4164  10.6390  10.8506

          k = 0.0840 0.3396 0.1587 (  4072 PWs)   bands (ev):

   -39.6996 -39.6663 -18.7602 -18.6670 -18.6048 -18.5414 -18.4795 -18.4594
     6.1392   8.0039   8.9323   9.4421  10.2674  10.5894  10.9203

          k = 0.0840 0.3396 0.2380 (  4067 PWs)   bands (ev):

   -39.6920 -39.6739 -18.7525 -18.6990 -18.5628 -18.5292 -18.4949 -18.4742
     6.5004   7.4913   9.1651   9.5172  10.1298  10.3867  11.1178

          k = 0.0840 0.3396-0.3173 (  4068 PWs)   bands (ev):

   -39.6830 -39.6830 -18.7307 -18.7307 -18.5301 -18.5301 -18.4956 -18.4956
     6.9664   6.9664   9.4106   9.4106  10.1783  10.1784  11.3644

          k = 0.0840 0.4367-0.0000 (  4079 PWs)   bands (ev):

   -39.6916 -39.6572 -18.7417 -18.6983 -18.6748 -18.5736 -18.4876 -18.4752
     6.7059   8.4846   8.5557   9.0524  10.3911  10.6315  10.6989

          k = 0.0840 0.4367 0.0793 (  4082 PWs)   bands (ev):

   -39.6903 -39.6585 -18.7636 -18.6958 -18.6574 -18.5708 -18.4885 -18.4748
     6.7572   8.3624   8.6440   9.1040  10.3424  10.6212  10.7331

          k = 0.0840 0.4367 0.1587 (  4084 PWs)   bands (ev):

   -39.6866 -39.6623 -18.7860 -18.7226 -18.6113 -18.5593 -18.4980 -18.4733
     6.9076   8.1135   8.8188   9.2207  10.2384  10.5186  10.8804

          k = 0.0840 0.4367 0.2380 (  4077 PWs)   bands (ev):

   -39.6810 -39.6679 -18.7921 -18.7551 -18.5713 -18.5387 -18.5124 -18.4806
     7.1463   7.7913   9.0543   9.3183  10.1483  10.3282  11.1381

          k = 0.0840 0.4367-0.3173 (  4068 PWs)   bands (ev):

   -39.6744 -39.6744 -18.7808 -18.7808 -18.5438 -18.5438 -18.5004 -18.5004
     7.4524   7.4524   9.2665   9.2665  10.1669  10.1670  11.4758

          k = 0.0840 0.5337-0.0000 (  4075 PWs)   bands (ev):

   -39.6816 -39.6575 -18.7799 -18.7048 -18.6611 -18.5883 -18.5143 -18.4827
     7.4617   8.2334   8.4502   8.8718  10.3342  10.4643  10.9031

          k = 0.0840 0.5337 0.0793 (  4079 PWs)   bands (ev):

   -39.6806 -39.6584 -18.7926 -18.7199 -18.6413 -18.5822 -18.5105 -18.4841
     7.4609   8.1847   8.5610   8.8889  10.3534  10.4753  10.8851

          k = 0.0840 0.5337 0.1587 (  4078 PWs)   bands (ev):

   -39.6780 -39.6610 -18.8120 -18.7526 -18.6066 -18.5619 -18.5129 -18.4837
     7.4824   8.0627   8.7936   8.9929  10.3546  10.4278  10.9483

          k = 0.0840 0.5337 0.2380 (  4081 PWs)   bands (ev):

   -39.6741 -39.6649 -18.8200 -18.7868 -18.5774 -18.5343 -18.5249 -18.4857
     7.5598   7.8837   9.0404   9.1784  10.2347  10.3273  11.1952

          k = 0.0840 0.5337-0.3173 (  4092 PWs)   bands (ev):

   -39.6695 -39.6695 -18.8112 -18.8112 -18.5523 -18.5523 -18.5008 -18.5008
     7.7006   7.7006   9.2204   9.2204  10.2080  10.2080  11.5586

          k = 0.1681 0.2911-0.0000 (  4067 PWs)   bands (ev):

   -39.7087 -39.6598 -18.7537 -18.6423 -18.6343 -18.5338 -18.4730 -18.4532
     5.7195   8.5676   8.8191   9.3079  10.5068  10.5091  10.9658

          k = 0.1681 0.2911 0.0793 (  4068 PWs)   bands (ev):

   -39.7068 -39.6616 -18.7556 -18.6389 -18.6277 -18.5398 -18.4764 -18.4522
     5.8006   8.4317   8.8327   9.3429  10.4572  10.5596  10.9069

          k = 0.1681 0.2911 0.1587 (  4082 PWs)   bands (ev):

   -39.7016 -39.6670 -18.7544 -18.6562 -18.5933 -18.5462 -18.4855 -18.4555
     6.0386   8.0120   8.9704   9.4397  10.3070  10.5485  10.8948

          k = 0.1681 0.2911 0.2380 (  4079 PWs)   bands (ev):

   -39.6936 -39.6749 -18.7420 -18.6859 -18.5553 -18.5427 -18.4959 -18.4698
     6.4172   7.4633   9.2043   9.5420  10.1205  10.3419  11.0750

          k = 0.1681 0.2911-0.3173 (  4072 PWs)   bands (ev):

   -39.6843 -39.6843 -18.7176 -18.7176 -18.5370 -18.5370 -18.4914 -18.4914
     6.9074   6.9074   9.4558   9.4558  10.1309  10.1309  11.3068

          k = 0.1681 0.3882-0.0000 (  4083 PWs)   bands (ev):

   -39.6941 -39.6574 -18.7070 -18.7037 -18.6713 -18.5695 -18.4974 -18.4817
     6.5417   8.6478   8.7177   9.0075  10.2910  10.6027  10.7196

          k = 0.1681 0.3882 0.0793 (  4085 PWs)   bands (ev):

   -39.6927 -39.6588 -18.7387 -18.6941 -18.6456 -18.5749 -18.5022 -18.4750
     6.6051   8.5321   8.7776   9.0552  10.2564  10.6236  10.6666

          k = 0.1681 0.3882 0.1587 (  4082 PWs)   bands (ev):

   -39.6887 -39.6628 -18.7614 -18.7096 -18.6034 -18.5759 -18.5117 -18.4681
     6.7905   8.2481   8.9278   9.1694  10.1607  10.4308  10.7975

          k = 0.1681 0.3882 0.2380 (  4082 PWs)   bands (ev):

   -39.6828 -39.6687 -18.7675 -18.7348 -18.5809 -18.5596 -18.5139 -18.4732
     7.0827   7.8640   9.1386   9.3009  10.0294  10.1779  11.0345

          k = 0.1681 0.3882-0.3173 (  4078 PWs)   bands (ev):

   -39.6758 -39.6758 -18.7571 -18.7571 -18.5655 -18.5655 -18.4924 -18.4924
     7.4549   7.4549   9.3160   9.3160   9.9973   9.9973  11.3530

          k = 0.1681 0.4852-0.0000 (  4088 PWs)   bands (ev):

   -39.6817 -39.6574 -18.7509 -18.6885 -18.6618 -18.6041 -18.5137 -18.5135
     7.3714   8.5368   8.5454   8.8505  10.2102  10.4625  10.8685

          k = 0.1681 0.4852 0.0793 (  4086 PWs)   bands (ev):

   -39.6807 -39.6583 -18.7629 -18.7076 -18.6410 -18.5983 -18.5241 -18.4983
     7.4043   8.4389   8.6399   8.9225  10.1852  10.3972  10.8843

          k = 0.1681 0.4852 0.1587 (  4084 PWs)   bands (ev):

   -39.6781 -39.6609 -18.7830 -18.7362 -18.6253 -18.5706 -18.5336 -18.4828
     7.5023   8.2845   8.8103   9.0896  10.0991  10.2174  10.9686

          k = 0.1681 0.4852 0.2380 (  4090 PWs)   bands (ev):

   -39.6742 -39.6649 -18.7929 -18.7658 -18.6088 -18.5678 -18.5169 -18.4785
     7.6601   8.0831   9.0523   9.2684   9.9646   9.9803  11.1577

          k = 0.1681 0.4852-0.3173 (  4086 PWs)   bands (ev):

   -39.6695 -39.6695 -18.7868 -18.7868 -18.5879 -18.5879 -18.4905 -18.4905
     7.8629   7.8629   9.2782   9.2782   9.8641   9.8641  11.4500

          k = 0.1681 0.5823-0.0000 (  4073 PWs)   bands (ev):

   -39.6760 -39.6584 -18.7679 -18.6929 -18.6388 -18.6190 -18.5316 -18.5195
     7.8679   8.3287   8.5120   8.7562  10.2703  10.2791  11.0008

          k = 0.1681 0.5823 0.0793 (  4086 PWs)   bands (ev):

   -39.6754 -39.6591 -18.7775 -18.7087 -18.6441 -18.5933 -18.5375 -18.5084
     7.8522   8.3182   8.6154   8.7844  10.2347  10.2446  11.0112

          k = 0.1681 0.5823 0.1587 (  4090 PWs)   bands (ev):

   -39.6735 -39.6610 -18.7947 -18.7425 -18.6371 -18.5520 -18.5518 -18.4903
     7.8480   8.2569   8.8685   8.9015  10.1119  10.1292  11.0856

          k = 0.1681 0.5823 0.2380 (  4087 PWs)   bands (ev):

   -39.6706 -39.6639 -18.8039 -18.7757 -18.6194 -18.5724 -18.5144 -18.4817
     7.8978   8.1371   9.1151   9.1725   9.8872   9.9534  11.2667

          k = 0.1681 0.5823-0.3173 (  4098 PWs)   bands (ev):

   -39.6672 -39.6672 -18.7977 -18.7977 -18.5963 -18.5963 -18.4895 -18.4895
     8.0027   8.0027   9.3138   9.3138   9.7731   9.7731  11.5441

          k = 0.2521 0.4367-0.0000 (  4111 PWs)   bands (ev):

   -39.6817 -39.6574 -18.7261 -18.6926 -18.6622 -18.6030 -18.5365 -18.5131
     7.3391   8.5996   8.7415   8.7877  10.1291  10.4755  10.8344

          k = 0.2521 0.4367 0.0793 (  4095 PWs)   bands (ev):

   -39.6808 -39.6583 -18.7283 -18.7249 -18.6251 -18.6147 -18.5393 -18.5008
     7.3852   8.5382   8.7799   8.8682  10.1144  10.3672  10.8430

          k = 0.2521 0.4367 0.1587 (  4087 PWs)   bands (ev):

   -39.6781 -39.6609 -18.7567 -18.7387 -18.6273 -18.5877 -18.5392 -18.4828
     7.5182   8.4043   8.8940   9.0362  10.0495  10.1143  10.8962

          k = 0.2521 0.4367 0.2380 (  4087 PWs)   bands (ev):

   -39.6742 -39.6649 -18.7727 -18.7571 -18.6228 -18.5888 -18.5137 -18.4765
     7.7212   8.2071   9.0725   9.2223   9.8452   9.9109  11.0551

          k = 0.2521 0.4367-0.3173 (  4088 PWs)   bands (ev):

   -39.6695 -39.6695 -18.7716 -18.7716 -18.6066 -18.6066 -18.4874 -18.4874
     7.9648   7.9648   9.2531   9.2531   9.7627   9.7627  11.3475

          k = 0.2521 0.5337-0.0000 (  4082 PWs)   bands (ev):

   -39.6722 -39.6597 -18.7428 -18.6801 -18.6410 -18.6220 -18.5612 -18.5455
     8.0280   8.5643   8.5923   8.6859  10.1060  10.2450  11.0651

          k = 0.2521 0.5337 0.0793 (  4084 PWs)   bands (ev):

   -39.6717 -39.6601 -18.7463 -18.7018 -18.6587 -18.5927 -18.5664 -18.5264
     8.0538   8.5304   8.6391   8.7733  10.0669  10.1468  11.0676

          k = 0.2521 0.5337 0.1587 (  4092 PWs)   bands (ev):

   -39.6703 -39.6615 -18.7604 -18.7321 -18.6696 -18.5904 -18.5398 -18.4989
     8.1259   8.4868   8.7725   8.9642   9.8943   9.9499  11.1001

          k = 0.2521 0.5337 0.2380 (  4100 PWs)   bands (ev):

   -39.6683 -39.6635 -18.7744 -18.7591 -18.6582 -18.6113 -18.5046 -18.4826
     8.2287   8.4273   8.9887   9.2129   9.5845   9.7451  11.2138

          k = 0.2521 0.5337-0.3173 (  4100 PWs)   bands (ev):

   -39.6659 -39.6659 -18.7748 -18.7748 -18.6359 -18.6359 -18.4842 -18.4842
     8.3379   8.3379   9.2679   9.2679   9.4879   9.4879  11.4491

          k = 0.3362 0.5823-0.0000 (  4077 PWs)   bands (ev):

   -39.6646 -39.6646 -18.7328 -18.6642 -18.6642 -18.5890 -18.5824 -18.5824
     8.4716   8.4716   8.5712   8.6251  10.1078  10.1078  11.1632

          k = 0.3362 0.5823 0.0793 (  4104 PWs)   bands (ev):

   -39.6646 -39.6646 -18.7274 -18.6887 -18.6887 -18.5946 -18.5575 -18.5575
     8.5178   8.5178   8.5903   8.6463  10.0289  10.0289  11.1605

          k = 0.3362 0.5823 0.1587 (  4077 PWs)   bands (ev):

   -39.6646 -39.6646 -18.7260 -18.7260 -18.7120 -18.6103 -18.5195 -18.5195
     8.6405   8.6492   8.6492   8.6962   9.8256   9.8256  11.1744

          k = 0.3362 0.5823 0.2380 (  4104 PWs)   bands (ev):

   -39.6646 -39.6646 -18.7528 -18.7528 -18.6888 -18.6338 -18.4919 -18.4919
     8.7015   8.7396   8.8372   8.8372   9.5738   9.5738  11.2595

          k = 0.3362 0.5823-0.3173 (  4128 PWs)   bands (ev):

   -39.6646 -39.6646 -18.7623 -18.7623 -18.6614 -18.6614 -18.4820 -18.4820
     8.7427   8.7427   8.9650   8.9650   9.4214   9.4214  11.4685

     the Fermi energy is     9.1349 ev

!    total energy              =    -306.87643661 Ry
     total all-electron energy =     -3050.017207 Ry
     estimated scf accuracy    <          6.1E-09 Ry
     smearing contrib. (-TS)   =      -0.00101300 Ry
     internal energy E=F+TS    =    -306.87542361 Ry

     The total energy is F=E-TS. E is the sum of the following terms:
     one-electron contribution =     -72.58749228 Ry
     hartree contribution      =      41.70024302 Ry
     xc contribution           =     -34.56424001 Ry
     ewald contribution        =    -127.66703656 Ry
     one-center paw contrib.   =    -113.75689779 Ry

     convergence has been achieved in  28 iterations

     Forces acting on atoms (cartesian axes, Ry/au):

     atom    1 type  1   force =     0.00000000    0.00000000   -0.00000000
     atom    2 type  1   force =    -0.00000000   -0.00000000    0.00000000
     The non-local contrib.  to forces
     atom    1 type  1   force =    -0.00000000   -0.00000000    0.00000000
     atom    2 type  1   force =     0.00000000   -0.00000000    0.00000000
     The ionic contribution  to forces
     atom    1 type  1   force =     0.00000000   -0.00000000    0.00000000
     atom    2 type  1   force =    -0.00000000    0.00000000   -0.00000000
     The local contribution  to forces
     atom    1 type  1   force =    -0.00000000    0.00000000    0.00000000
     atom    2 type  1   force =    -0.00000000    0.00000000    0.00000000
     The core correction contribution to forces
     atom    1 type  1   force =    -0.00000000   -0.00000000    0.00000000
     atom    2 type  1   force =     0.00000000   -0.00000000    0.00000000
     The Hubbard contrib.    to forces
     atom    1 type  1   force =     0.00000000    0.00000000    0.00000000
     atom    2 type  1   force =     0.00000000    0.00000000    0.00000000
     The SCF correction term to forces
     atom    1 type  1   force =     0.00000000   -0.00000000    0.00000000
     atom    2 type  1   force =     0.00000000   -0.00000000    0.00000000

     Total force =     0.000000     Total SCF correction =     0.000000


     Computing stress (Cartesian axis) and pressure

          total   stress  (Ry/bohr**3)                   (kbar)     P=      -41.96
  -0.00024601  -0.00000000   0.00000000          -36.19       -0.00        0.00
  -0.00000000  -0.00024601   0.00000000           -0.00      -36.19        0.00
   0.00000000   0.00000000  -0.00036369            0.00        0.00      -53.50

     Energy error            =      3.2E-03 Ry
     Gradient error          =      1.9E-27 Ry/Bohr
     Cell gradient error     =      5.4E+01 kbar

     number of scf cycles    =   2
     number of bfgs steps    =   1

     enthalpy           old  =    -306.8732273592 Ry
     enthalpy           new  =    -306.8764366138 Ry

     CASE: enthalpy          _new < enthalpy          _old

     new trust radius        =       0.0628951031 bohr
     new conv_thr            =            1.0E-10 Ry

     new unit-cell volume =    314.88308 a.u.^3 (    46.66086 Ang^3 )
     density =      3.17411 g/cm^3

CELL_PARAMETERS (alat=  6.25310370)
   0.979995414  -0.000000000   0.000000000
  -0.489997707   0.848700925   0.000000000
   0.000000000   0.000000000   1.548401980

ATOMIC_POSITIONS (crystal)
Sc            0.0000000000        0.0000000000       -0.0000000000
Sc            0.6666666667        0.3333333333        0.5000000000



     Writing config-only to output data dir sc_vcrelax.out/scandium.save/
     NEW-OLD atomic charge density approx. for the potential

     Check: negative core charge=   -0.000011
     extrapolated charge   21.07921, renormalised to   22.00000

     total cpu time spent up to now is      496.0 secs

     Self-consistent Calculation

     iteration #  1     ecut=    80.00 Ry     beta= 0.70
     Davidson diagonalization with overlap
     c_bands:  2 eigenvalues not converged
     c_bands:  3 eigenvalues not converged
     c_bands:  4 eigenvalues not converged
     c_bands:  1 eigenvalues not converged
     c_bands:  1 eigenvalues not converged
     c_bands:  3 eigenvalues not converged
     c_bands:  4 eigenvalues not converged
     c_bands:  2 eigenvalues not converged
     c_bands:  3 eigenvalues not converged
     c_bands:  2 eigenvalues not converged
     c_bands:  2 eigenvalues not converged
     c_bands:  3 eigenvalues not converged
     c_bands:  2 eigenvalues not converged
     c_bands:  5 eigenvalues not converged
     c_bands:  2 eigenvalues not converged
     c_bands:  4 eigenvalues not converged
     c_bands:  3 eigenvalues not converged
     c_bands:  4 eigenvalues not converged
     c_bands:  1 eigenvalues not converged
     c_bands:  3 eigenvalues not converged
     c_bands:  3 eigenvalues not converged
     c_bands:  4 eigenvalues not converged
     c_bands:  5 eigenvalues not converged
     c_bands:  4 eigenvalues not converged
     c_bands:  2 eigenvalues not converged
     c_bands:  3 eigenvalues not converged
     c_bands:  3 eigenvalues not converged
     c_bands:  2 eigenvalues not converged
     c_bands:  2 eigenvalues not converged
     c_bands:  5 eigenvalues not converged
     c_bands:  2 eigenvalues not converged
     c_bands:  2 eigenvalues not converged
     c_bands:  2 eigenvalues not converged
     c_bands:  2 eigenvalues not converged
     c_bands:  2 eigenvalues not converged
     c_bands:  4 eigenvalues not converged
     c_bands:  3 eigenvalues not converged
     c_bands:  5 eigenvalues not converged
     c_bands:  3 eigenvalues not converged
     c_bands:  2 eigenvalues not converged
     c_bands:  5 eigenvalues not converged
     c_bands:  4 eigenvalues not converged
     c_bands:  1 eigenvalues not converged
     c_bands:  2 eigenvalues not converged
     c_bands:  3 eigenvalues not converged
     c_bands:  4 eigenvalues not converged
     c_bands:  4 eigenvalues not converged
     c_bands:  3 eigenvalues not converged
     c_bands:  2 eigenvalues not converged
     c_bands:  4 eigenvalues not converged
     c_bands:  4 eigenvalues not converged
     c_bands:  4 eigenvalues not converged
     c_bands:  5 eigenvalues not converged
     ethr =  1.00E-06,  avg # of iterations = 23.3

     total cpu time spent up to now is      504.8 secs

     total energy              =    -306.63782822 Ry
     estimated scf accuracy    <       0.17552294 Ry

     iteration #  2     ecut=    80.00 Ry     beta= 0.70
     Davidson diagonalization with overlap
     ethr =  7.98E-04,  avg # of iterations =  6.9

     total cpu time spent up to now is      507.7 secs

     total energy              =    -306.88614583 Ry
     estimated scf accuracy    <       0.27649725 Ry

     iteration #  3     ecut=    80.00 Ry     beta= 0.70
     Davidson diagonalization with overlap
     ethr =  7.98E-04,  avg # of iterations =  1.1

     total cpu time spent up to now is      509.5 secs

     total energy              =    -306.87466962 Ry
     estimated scf accuracy    <       0.08298268 Ry

     iteration #  4     ecut=    80.00 Ry     beta= 0.70
     Davidson diagonalization with overlap
     ethr =  3.77E-04,  avg # of iterations =  2.6

     total cpu time spent up to now is      511.0 secs

     total energy              =    -306.87264205 Ry
     estimated scf accuracy    <       0.03567591 Ry

     iteration #  5     ecut=    80.00 Ry     beta= 0.70
     Davidson diagonalization with overlap
     ethr =  1.62E-04,  avg # of iterations =  2.7

     total cpu time spent up to now is      512.7 secs

     total energy              =    -306.87679534 Ry
     estimated scf accuracy    <       0.01642830 Ry

     iteration #  6     ecut=    80.00 Ry     beta= 0.70
     Davidson diagonalization with overlap
     ethr =  7.47E-05,  avg # of iterations =  4.2

     total cpu time spent up to now is      514.7 secs

     total energy              =    -306.88108419 Ry
     estimated scf accuracy    <       0.01146243 Ry

     iteration #  7     ecut=    80.00 Ry     beta= 0.70
     Davidson diagonalization with overlap
     ethr =  5.21E-05,  avg # of iterations =  2.3

     total cpu time spent up to now is      516.7 secs

     total energy              =    -306.88334204 Ry
     estimated scf accuracy    <       0.01100528 Ry

     iteration #  8     ecut=    80.00 Ry     beta= 0.70
     Davidson diagonalization with overlap
     ethr =  5.00E-05,  avg # of iterations =  1.2

     total cpu time spent up to now is      518.0 secs

     total energy              =    -306.88585457 Ry
     estimated scf accuracy    <       0.01297607 Ry

     iteration #  9     ecut=    80.00 Ry     beta= 0.70
     Davidson diagonalization with overlap
     ethr =  5.00E-05,  avg # of iterations =  1.1

     total cpu time spent up to now is      519.2 secs

     total energy              =    -306.89628093 Ry
     estimated scf accuracy    <       0.01681577 Ry

     iteration # 10     ecut=    80.00 Ry     beta= 0.70
     Davidson diagonalization with overlap
     ethr =  5.00E-05,  avg # of iterations =  1.4

     total cpu time spent up to now is      520.6 secs

     total energy              =    -306.86641846 Ry
[...]

          k = 0.0000 0.3947 0.1659 (  3664 PWs)   bands (ev):

   -38.5691 -38.5231 -17.7284 -17.6085 -17.5013 -17.4268 -17.3235 -17.3157
     7.3193   8.9408   9.7071  10.2644  11.3269  11.7408  11.8251

          k = 0.0000 0.3947 0.2488 (  3662 PWs)   bands (ev):

   -38.5585 -38.5337 -17.7280 -17.6595 -17.4325 -17.4033 -17.3474 -17.3336
     7.6426   8.5131   9.9713  10.3417  11.2187  11.5243  12.0979

          k = 0.0000 0.3947-0.3318 (  3672 PWs)   bands (ev):

   -38.5461 -38.5461 -17.7032 -17.7032 -17.3754 -17.3754 -17.3736 -17.3736
     8.0560   8.0560  10.2366  10.2366  11.2916  11.2916  12.4497

          k = 0.0000 0.4933 0.0000 (  3677 PWs)   bands (ev):

   -38.5601 -38.5140 -17.6998 -17.6117 -17.5913 -17.4679 -17.3611 -17.3120
     7.8980   9.0876   9.3317   9.8827  11.4347  11.5299  11.9705

          k = 0.0000 0.4933 0.0829 (  3679 PWs)   bands (ev):

   -38.5584 -38.5158 -17.7291 -17.6189 -17.5634 -17.4621 -17.3519 -17.3180
     7.9196   9.0312   9.4212   9.9103  11.5088  11.5366  11.9119

          k = 0.0000 0.4933 0.1659 (  3671 PWs)   bands (ev):

   -38.5534 -38.5208 -17.7624 -17.6678 -17.4922 -17.4454 -17.3394 -17.3351
     7.9948   8.8664   9.6355  10.0299  11.5130  11.7273  11.7617

          k = 0.0000 0.4933 0.2488 (  3674 PWs)   bands (ev):

   -38.5459 -38.5282 -17.7731 -17.7197 -17.4240 -17.4203 -17.3606 -17.3435
     8.1406   8.6182   9.9138  10.1833  11.4202  11.5874  12.0786

          k = 0.0000 0.4933-0.3318 (  3662 PWs)   bands (ev):

   -38.5371 -38.5371 -17.7578 -17.7578 -17.3905 -17.3905 -17.3721 -17.3721
     8.3573   8.3573  10.1545  10.1545  11.4307  11.4307  12.5401

          k =-0.0000-0.5920-0.0000 (  3664 PWs)   bands (ev):

   -38.5522 -38.5154 -17.7246 -17.6131 -17.5828 -17.4751 -17.3833 -17.3158
     8.3908   8.8667   9.2493   9.7814  11.3789  11.4813  12.0894

          k =-0.0000-0.5920 0.0829 (  3670 PWs)   bands (ev):

   -38.5508 -38.5168 -17.7475 -17.6370 -17.5477 -17.4691 -17.3707 -17.3219
     8.3419   8.8593   9.4061   9.7571  11.4573  11.5506  11.9969

          k =-0.0000-0.5920 0.1659 (  3676 PWs)   bands (ev):

   -38.5468 -38.5207 -17.7791 -17.6889 -17.4815 -17.4521 -17.3516 -17.3394
     8.2890   8.7873   9.7525   9.7840  11.6701  11.6889  11.7643

          k =-0.0000-0.5920 0.2488 (  3676 PWs)   bands (ev):

   -38.5408 -38.5267 -17.7915 -17.7413 -17.4264 -17.4176 -17.3655 -17.3487
     8.3185   8.6214   9.9511  10.0783  11.5381  11.6724  12.0628

          k =-0.0000-0.5920-0.3318 (  3664 PWs)   bands (ev):

   -38.5338 -38.5338 -17.7782 -17.7782 -17.3961 -17.3961 -17.3709 -17.3709
     8.4405   8.4405  10.1361  10.1361  11.5372  11.5372  12.5578

          k = 0.0854 0.1480 0.0000 (  3667 PWs)   bands (ev):

   -38.6247 -38.5218 -17.8048 -17.4238 -17.3935 -17.3288 -17.2768 -17.2416
     5.2957   8.6659  10.5318  11.0456  11.9217  12.0701  12.0870

          k = 0.0854 0.1480 0.0829 (  3663 PWs)   bands (ev):

   -38.6209 -38.5258 -17.7868 -17.4177 -17.3911 -17.3426 -17.2810 -17.2515
     5.4060   8.5660  10.4272  11.0570  11.8976  11.9282  11.9613

          k = 0.0854 0.1480 0.1659 (  3675 PWs)   bands (ev):

   -38.6098 -38.5370 -17.7354 -17.4047 -17.4004 -17.3651 -17.2930 -17.2762
     5.7285   8.2020  10.3395  11.0957  11.6305  11.7698  11.8982

          k = 0.0854 0.1480 0.2488 (  3673 PWs)   bands (ev):

   -38.5932 -38.5538 -17.6579 -17.4749 -17.3743 -17.3537 -17.3106 -17.3070
     6.2371   7.5855  10.4750  11.0777  11.3848  11.6718  11.7864

          k = 0.0854 0.1480-0.3318 (  3678 PWs)   bands (ev):

   -38.5735 -38.5735 -17.5660 -17.5660 -17.3456 -17.3456 -17.3284 -17.3284
     6.8837   6.8837  10.7754  10.7755  11.4813  11.4817  11.8419

          k = 0.0854 0.2467 0.0000 (  3668 PWs)   bands (ev):

   -38.6078 -38.5177 -17.7589 -17.4954 -17.4469 -17.3803 -17.2922 -17.2661
     5.8954   9.0598  10.1158  10.5732  11.7025  11.7748  12.1088

          k = 0.0854 0.2467 0.0829 (  3671 PWs)   bands (ev):

   -38.6044 -38.5211 -17.7485 -17.4858 -17.4508 -17.3889 -17.2972 -17.2695
     5.9961   8.9795  10.0266  10.6036  11.6679  11.7880  12.0052

          k = 0.0854 0.2467 0.1659 (  3679 PWs)   bands (ev):

   -38.5947 -38.5310 -17.7180 -17.4883 -17.4486 -17.3931 -17.3111 -17.2839
     6.2909   8.6233  10.0073  10.6863  11.4677  11.7682  11.9232

          k = 0.0854 0.2467 0.2488 (  3681 PWs)   bands (ev):

   -38.5801 -38.5456 -17.6697 -17.5434 -17.4092 -17.3799 -17.3311 -17.3120
     6.7573   8.0173  10.2127  10.7380  11.2519  11.5604  11.9905

          k = 0.0854 0.2467-0.3318 (  3678 PWs)   bands (ev):

   -38.5629 -38.5629 -17.6087 -17.6087 -17.3722 -17.3722 -17.3422 -17.3422
     7.3552   7.3552  10.5251  10.5252  11.3247  11.3247  12.1186

          k = 0.0854 0.3453 0.0000 (  3678 PWs)   bands (ev):

   -38.5869 -38.5142 -17.6982 -17.5854 -17.5111 -17.4291 -17.3085 -17.3019
     6.7023   9.3468   9.7283  10.1682  11.5223  11.6341  11.8726

          k = 0.0854 0.3453 0.0829 (  3670 PWs)   bands (ev):

   -38.5841 -38.5170 -17.7071 -17.5659 -17.5168 -17.4310 -17.3160 -17.2976
     6.7852   9.2974   9.6788  10.2147  11.4382  11.7105  11.8349

          k = 0.0854 0.3453 0.1659 (  3665 PWs)   bands (ev):

   -38.5763 -38.5249 -17.7140 -17.5760 -17.4892 -17.4241 -17.3324 -17.2993
     7.0278   8.9685   9.7788  10.3237  11.2874  11.6860  11.8705

          k = 0.0854 0.3453 0.2488 (  3667 PWs)   bands (ev):

   -38.5645 -38.5367 -17.7024 -17.6240 -17.4345 -17.4027 -17.3543 -17.3179
     7.4114   8.4501  10.0350  10.4178  11.1432  11.4427  12.0887

          k = 0.0854 0.3453-0.3318 (  3672 PWs)   bands (ev):

   -38.5506 -38.5506 -17.6705 -17.6705 -17.3964 -17.3964 -17.3511 -17.3511
     7.9028   7.9028  10.3109  10.3109  11.1981  11.1981  12.3623

          k = 0.0854 0.4440 0.0000 (  3673 PWs)   bands (ev):

   -38.5664 -38.5135 -17.6653 -17.6333 -17.5685 -17.4656 -17.3453 -17.3226
     7.5862   9.2788   9.4414   9.9249  11.3702  11.6399  11.8461

          k = 0.0854 0.4440 0.0829 (  3672 PWs)   bands (ev):

   -38.5644 -38.5155 -17.7051 -17.6074 -17.5599 -17.4623 -17.3424 -17.3232
     7.6362   9.2183   9.4808   9.9858  11.3613  11.6109  11.8516

          k = 0.0854 0.4440 0.1659 (  3673 PWs)   bands (ev):

   -38.5586 -38.5212 -17.7384 -17.6435 -17.5013 -17.4441 -17.3538 -17.3185
     7.7842   8.9955   9.6620  10.1293  11.2775  11.5669  11.8975

          k = 0.0854 0.4440 0.2488 (  3663 PWs)   bands (ev):

   -38.5501 -38.5298 -17.7471 -17.6922 -17.4516 -17.4080 -17.3746 -17.3254
     8.0220   8.6744   9.9408  10.2588  11.1725  11.3765  12.1392

          k = 0.0854 0.4440-0.3318 (  3664 PWs)   bands (ev):

   -38.5399 -38.5399 -17.7302 -17.7302 -17.4163 -17.4163 -17.3528 -17.3528
     8.3308   8.3308  10.2009  10.2009  11.1899  11.1899  12.5097

          k = 0.0854 0.5427 0.0000 (  3669 PWs)   bands (ev):

   -38.5523 -38.5153 -17.7115 -17.6022 -17.5834 -17.4852 -17.3827 -17.3308
     8.3269   9.0315   9.2904   9.7646  11.3242  11.4760  12.0765

          k = 0.0854 0.5427 0.0829 (  3669 PWs)   bands (ev):

   -38.5509 -38.5167 -17.7343 -17.6276 -17.5508 -17.4759 -17.3729 -17.3338
     8.3116   9.0008   9.4190   9.7755  11.3595  11.4956  12.0288

          k = 0.0854 0.5427 0.1659 (  3675 PWs)   bands (ev):

   -38.5469 -38.5207 -17.7658 -17.6788 -17.5017 -17.4432 -17.3717 -17.3325
     8.3101   8.8997   9.6780   9.9019  11.3724  11.5084  12.0033

          k = 0.0854 0.5427 0.2488 (  3677 PWs)   bands (ev):

   -38.5409 -38.5267 -17.7785 -17.7302 -17.4629 -17.4003 -17.3884 -17.3320
     8.3769   8.7174   9.9491  10.1460  11.2479  11.4194  12.2206

          k = 0.0854 0.5427-0.3318 (  3666 PWs)   bands (ev):

   -38.5338 -38.5338 -17.7661 -17.7661 -17.4280 -17.4280 -17.3518 -17.3518
     8.5221   8.5221  10.1794  10.1794  11.2519  11.2519  12.6192

          k = 0.1709 0.2960 0.0000 (  3681 PWs)   bands (ev):

   -38.5898 -38.5145 -17.7071 -17.5424 -17.5334 -17.4077 -17.3219 -17.2964
     6.5858   9.4018   9.8050  10.1578  11.4555  11.6084  11.9753

          k = 0.1709 0.2960 0.0829 (  3674 PWs)   bands (ev):

   -38.5869 -38.5174 -17.7097 -17.5391 -17.5221 -17.4187 -17.3270 -17.2925
     6.6733   9.3562   9.7333  10.1976  11.4222  11.6629  11.8969

          k = 0.1709 0.2960 0.1659 (  3665 PWs)   bands (ev):

   -38.5788 -38.5256 -17.7078 -17.5639 -17.4743 -17.4297 -17.3409 -17.2934
     6.9293   9.0000   9.8166  10.3087  11.2994  11.6465  11.8593

          k = 0.1709 0.2960 0.2488 (  3658 PWs)   bands (ev):

   -38.5666 -38.5379 -17.6902 -17.6083 -17.4224 -17.4220 -17.3568 -17.3112
     7.3347   8.4395  10.0704  10.4300  11.1214  11.3853  12.0605

          k = 0.1709 0.2960-0.3318 (  3660 PWs)   bands (ev):

   -38.5523 -38.5523 -17.6550 -17.6550 -17.4068 -17.4068 -17.3438 -17.3438
     7.8556   7.8556  10.3474  10.3474  11.1393  11.1393  12.3089

          k = 0.1709 0.3947 0.0000 (  3678 PWs)   bands (ev):

   -38.5698 -38.5133 -17.6450 -17.6189 -17.5732 -17.4526 -17.3497 -17.3369
     7.4278   9.5309   9.5480   9.8485  11.2470  11.7333  11.7424

          k = 0.1709 0.3947 0.0829 (  3671 PWs)   bands (ev):

   -38.5677 -38.5155 -17.6806 -17.6081 -17.5428 -17.4634 -17.3570 -17.3241
     7.4937   9.4400   9.5960   9.9076  11.2295  11.6488  11.7645

          k = 0.1709 0.3947 0.1659 (  3672 PWs)   bands (ev):

   -38.5616 -38.5216 -17.7113 -17.6301 -17.4907 -17.4618 -17.3716 -17.3102
     7.6857   9.1677   9.7702  10.0450  11.1530  11.4526  11.8479

          k = 0.1709 0.3947 0.2488 (  3662 PWs)   bands (ev):

   -38.5524 -38.5308 -17.7188 -17.6686 -17.4683 -17.4307 -17.3745 -17.3144
     7.9875   8.7856  10.0200  10.2055  11.0184  11.1802  12.0654

          k = 0.1709 0.3947-0.3318 (  3652 PWs)   bands (ev):

   -38.5416 -38.5416 -17.7026 -17.7026 -17.4444 -17.4444 -17.3405 -17.3405
     8.3697   8.3697  10.2309  10.2309  10.9777  10.9777  12.3982

          k = 0.1709 0.4933 0.0000 (  3669 PWs)   bands (ev):

   -38.5525 -38.5151 -17.6774 -17.5879 -17.5844 -17.4985 -17.3816 -17.3682
     8.2559   9.3408   9.3817   9.7128  11.1773  11.4967  12.0271

          k = 0.1709 0.4933 0.0829 (  3665 PWs)   bands (ev):

   -38.5510 -38.5166 -17.6988 -17.6218 -17.5458 -17.4918 -17.3851 -17.3543
     8.2841   9.2795   9.4575   9.7934  11.1707  11.4197  12.0225

          k = 0.1709 0.4933 0.1659 (  3660 PWs)   bands (ev):

   -38.5470 -38.5206 -17.7312 -17.6626 -17.5279 -17.4469 -17.3978 -17.3297
     8.3714   9.1390   9.6542   9.9931  11.1074  11.2255  12.0599

          k = 0.1709 0.4933 0.2488 (  3662 PWs)   bands (ev):

   -38.5409 -38.5266 -17.7466 -17.7068 -17.5041 -17.4426 -17.3738 -17.3208
     8.5202   8.9405   9.9462  10.2209  10.9351  10.9909  12.2258

          k = 0.1709 0.4933-0.3318 (  3654 PWs)   bands (ev):

   -38.5338 -38.5338 -17.7378 -17.7378 -17.4729 -17.4729 -17.3363 -17.3363
     8.7198   8.7198  10.2330  10.2330  10.8347  10.8347  12.5323

          k = 0.1709 0.5920 0.0000 (  3666 PWs)   bands (ev):

   -38.5445 -38.5174 -17.6984 -17.5891 -17.5534 -17.5200 -17.4068 -17.3747
     8.7289   9.1542   9.3244   9.6272  11.2009  11.3595  12.1755

          k = 0.1709 0.5920 0.0829 (  3672 PWs)   bands (ev):

   -38.5434 -38.5184 -17.7150 -17.6157 -17.5578 -17.4834 -17.4041 -17.3656
     8.6952   9.1561   9.4593   9.6473  11.1823  11.3191  12.1622

          k = 0.1709 0.5920 0.1659 (  3658 PWs)   bands (ev):

   -38.5405 -38.5213 -17.7435 -17.6690 -17.5449 -17.4234 -17.4195 -17.3396
     8.6702   9.1080   9.7648   9.7726  11.0761  11.1998  12.1883

          k = 0.1709 0.5920 0.2488 (  3662 PWs)   bands (ev):

   -38.5361 -38.5257 -17.7587 -17.7187 -17.5177 -17.4486 -17.3695 -17.3249
     8.7152   8.9797  10.0141  10.1414  10.8440  10.9950  12.3490

          k = 0.1709 0.5920-0.3318 (  3662 PWs)   bands (ev):

   -38.5309 -38.5309 -17.7507 -17.7507 -17.4835 -17.4835 -17.3346 -17.3346
     8.8295   8.8295  10.2834  10.2834  10.7480  10.7480  12.6450

          k = 0.2563 0.4440 0.0000 (  3679 PWs)   bands (ev):

   -38.5525 -38.5151 -17.6485 -17.5985 -17.5850 -17.4909 -17.3952 -17.3811
     8.2331   9.4330   9.5686   9.6130  11.0955  11.5109  11.9864

          k = 0.2563 0.4440 0.0829 (  3660 PWs)   bands (ev):

   -38.5511 -38.5165 -17.6558 -17.6512 -17.5202 -17.5118 -17.4002 -17.3595
     8.2794   9.3712   9.6130   9.7147  11.0891  11.3866  11.9845

          k = 0.2563 0.4440 0.1659 (  3649 PWs)   bands (ev):

   -38.5470 -38.5205 -17.7015 -17.6672 -17.5315 -17.4636 -17.4041 -17.3293
     8.4118   9.2522   9.7465   9.9225  11.0379  11.1018  12.0061

          k = 0.2563 0.4440 0.2488 (  3649 PWs)   bands (ev):

   -38.5409 -38.5266 -17.7237 -17.6971 -17.5221 -17.4672 -17.3682 -17.3176
     8.6118   9.0754   9.9605  10.1560  10.7945  10.8936  12.1381

          k = 0.2563 0.4440-0.3318 (  3654 PWs)   bands (ev):

   -38.5338 -38.5338 -17.7206 -17.7206 -17.4956 -17.4956 -17.3314 -17.3314
     8.8478   8.8478  10.1903  10.1903  10.7095  10.7095  12.4355

          k = 0.2563 0.5427 0.0000 (  3661 PWs)   bands (ev):

   -38.5389 -38.5197 -17.6712 -17.5810 -17.5377 -17.5308 -17.4261 -17.4232
     8.9032   9.3802   9.4022   9.5285  11.0871  11.2874  12.2403

          k = 0.2563 0.5427 0.0829 (  3668 PWs)   bands (ev):

   -38.5382 -38.5204 -17.6766 -17.6192 -17.5678 -17.4792 -17.4335 -17.3929
     8.9243   9.3574   9.4613   9.6186  11.0538  11.1788  12.2302

          k = 0.2563 0.5427 0.1659 (  3656 PWs)   bands (ev):

   -38.5361 -38.5225 -17.7014 -17.6622 -17.5846 -17.4639 -17.4049 -17.3505
     8.9868   9.3282   9.6222   9.8364  10.9048  10.9413  12.2341

          k = 0.2563 0.5427 0.2488 (  3653 PWs)   bands (ev):

   -38.5329 -38.5256 -17.7243 -17.7023 -17.5649 -17.4942 -17.3547 -17.3252
     9.0824   9.2760   9.8800  10.1268  10.5621  10.7294  12.3270

          k = 0.2563 0.5427-0.3318 (  3656 PWs)   bands (ev):

   -38.5292 -38.5292 -17.7254 -17.7254 -17.5307 -17.5307 -17.3262 -17.3262
     9.1887   9.1887  10.2042  10.2042  10.4442  10.4442  12.5684

          k = 0.3418 0.5920 0.0000 (  3651 PWs)   bands (ev):

   -38.5277 -38.5277 -17.6632 -17.5632 -17.5632 -17.4768 -17.4768 -17.4534
     9.3225   9.3225   9.3895   9.4262  11.1264  11.1264  12.3505

          k = 0.3418 0.5920 0.0829 (  3657 PWs)   bands (ev):

   -38.5277 -38.5277 -17.6553 -17.6044 -17.6044 -17.4616 -17.4350 -17.4350
     9.3738   9.3738   9.4202   9.4474  11.0430  11.0430  12.3381

          k = 0.3418 0.5920 0.1659 (  3654 PWs)   bands (ev):

   -38.5276 -38.5276 -17.6603 -17.6603 -17.6330 -17.4847 -17.3777 -17.3777
     9.4955   9.5026   9.5186   9.5186  10.8280  10.8280  12.3286

          k = 0.3418 0.5920 0.2488 (  3672 PWs)   bands (ev):

   -38.5276 -38.5276 -17.6994 -17.6994 -17.5993 -17.5191 -17.3372 -17.3372
     9.5655   9.5706   9.7215   9.7215  10.5638  10.5638  12.3931

          k = 0.3418 0.5920-0.3318 (  3660 PWs)   bands (ev):

   -38.5276 -38.5276 -17.7132 -17.7132 -17.5594 -17.5594 -17.3228 -17.3228
     9.5978   9.5978   9.8529   9.8529  10.4091  10.4091  12.6044

     the Fermi energy is    10.0440 ev

!    total energy              =    -306.88040896 Ry
     total all-electron energy =     -3050.021180 Ry
     estimated scf accuracy    <          2.5E-11 Ry
     smearing contrib. (-TS)   =      -0.00077238 Ry
     internal energy E=F+TS    =    -306.87963658 Ry

     The total energy is F=E-TS. E is the sum of the following terms:
     one-electron contribution =     -67.60118962 Ry
     hartree contribution      =      40.12562783 Ry
     xc contribution           =     -34.67061204 Ry
     ewald contribution        =    -130.97720833 Ry
     one-center paw contrib.   =    -113.75625442 Ry

     convergence has been achieved in  28 iterations

     Forces acting on atoms (cartesian axes, Ry/au):

     atom    1 type  1   force =    -0.00000000   -0.00000000   -0.00000000
     atom    2 type  1   force =     0.00000000    0.00000000    0.00000000
     The non-local contrib.  to forces
     atom    1 type  1   force =     0.00000000    0.00000000    0.00000000
     atom    2 type  1   force =    -0.00000000    0.00000000   -0.00000000
     The ionic contribution  to forces
     atom    1 type  1   force =     0.00000000   -0.00000000    0.00000000
     atom    2 type  1   force =    -0.00000000    0.00000000   -0.00000000
     The local contribution  to forces
     atom    1 type  1   force =     0.00000000    0.00000000    0.00000000
     atom    2 type  1   force =    -0.00000000    0.00000000   -0.00000000
     The core correction contribution to forces
     atom    1 type  1   force =    -0.00000000   -0.00000000    0.00000000
     atom    2 type  1   force =     0.00000000   -0.00000000    0.00000000
     The Hubbard contrib.    to forces
     atom    1 type  1   force =     0.00000000    0.00000000    0.00000000
     atom    2 type  1   force =     0.00000000    0.00000000    0.00000000
     The SCF correction term to forces
     atom    1 type  1   force =     0.00000000    0.00000000   -0.00000000
     atom    2 type  1   force =    -0.00000000   -0.00000000    0.00000000

     Total force =     0.000000     Total SCF correction =     0.000000


     Computing stress (Cartesian axis) and pressure

          total   stress  (Ry/bohr**3)                   (kbar)     P=       -0.45
  -0.00000315  -0.00000000  -0.00000000           -0.46       -0.00       -0.00
  -0.00000000  -0.00000315  -0.00000000           -0.00       -0.46       -0.00
  -0.00000000  -0.00000000  -0.00000293           -0.00       -0.00       -0.43


     Writing all to output data dir sc_vcrelax.out/scandium.save/

     init_run     :     10.16s CPU     21.87s WALL (       2 calls)
     electrons    :    487.61s CPU   6797.00s WALL (      10 calls)
     update_pot   :      1.83s CPU      2.64s WALL (       8 calls)
     forces       :      2.37s CPU      2.39s WALL (      10 calls)
     stress       :      9.36s CPU      9.38s WALL (      10 calls)

     Called by init_run:
     wfcinit      :      9.55s CPU     20.84s WALL (       2 calls)
     potinit      :      0.16s CPU      0.56s WALL (       2 calls)
     hinit0       :      0.41s CPU      0.42s WALL (       2 calls)

     Called by electrons:
     c_bands      :    431.47s CPU   6578.57s WALL (     240 calls)
     sum_band     :     45.55s CPU     47.09s WALL (     240 calls)
     v_of_rho     :      0.30s CPU      0.31s WALL (     248 calls)
     newd         :      2.66s CPU      2.66s WALL (     248 calls)
     PAW_pot      :      7.63s CPU      7.64s WALL (     256 calls)
     mix_rho      :      0.29s CPU      0.29s WALL (     240 calls)

     Called by c_bands:
     init_us_2    :      5.46s CPU      6.12s WALL (   48450 calls)
     init_us_2:cp :      5.31s CPU      6.02s WALL (   48450 calls)
     cegterg      :    418.27s CPU    431.75s WALL (   23000 calls)

     Called by *egterg:
     cdiaghg      :     42.80s CPU     43.92s WALL (  147644 calls)
     h_psi        :    289.65s CPU    300.31s WALL (  148972 calls)
     s_psi        :     18.49s CPU     19.01s WALL (  148972 calls)
     g_psi        :      1.70s CPU      1.73s WALL (  125782 calls)

     Called by h_psi:
     h_psi:calbec :     22.37s CPU     23.12s WALL (  148972 calls)
     vloc_psi     :    247.39s CPU    256.70s WALL (  148972 calls)
     add_vuspsi   :     18.49s CPU     19.06s WALL (  148972 calls)

     General routines
     calbec       :     29.05s CPU     30.11s WALL (  177282 calls)
     fft          :      0.45s CPU      0.46s WALL (    1558 calls)
     ffts         :      0.08s CPU      0.08s WALL (     488 calls)
     fftw         :    255.41s CPU    264.79s WALL ( 2844780 calls)
     interpolate  :      0.12s CPU      0.12s WALL (     248 calls)

     Parallel routines

     PWSCF        :   8m32.53s CPU      1h56m WALL


   This run was terminated on:  17:26:12  21Jul2023            

=------------------------------------------------------------------------------=
   JOB DONE.
=------------------------------------------------------------------------------=
