
     Program PWSCF v.7.2 starts on 26Jul2023 at 14:33: 5 

     This program is part of the open-source Quantum ESPRESSO suite
     for quantum simulation of materials; please cite
         "P. Giannozzi et al., J. Phys.:Condens. Matter 21 395502 (2009);
         "P. Giannozzi et al., J. Phys.:Condens. Matter 29 465901 (2017);
         "P. Giannozzi et al., J. Chem. Phys. 152 154105 (2020);
          URL http://www.quantum-espresso.org", 
     in publications or presentations arising from this work. More details at
     http://www.quantum-espresso.org/quote

     Parallel version (MPI), running on    20 processors

     MPI processes distributed on     1 nodes
     316526 MiB available memory on the printing compute node when the environment starts

     Waiting for input...
     Reading input from standard input

     Current dimensions of program PWSCF are:
     Max number of different atomic species (ntypx) = 10
     Max number of k-points (npk) = 120000
     Max angular momentum in pseudopotentials (lmaxx) =  4
     file Sc.pz-spn-kjpaw_psl.1.0.0.UPF: wavefunction(s)  3S 3P 3D renormalized

     R & G space division:  proc/nbgrp/npool/nimage =      20
     Subspace diagonalization in iterative solution of the eigenvalue problem:
     a serial algorithm will be used


     Parallelization info
     --------------------
     sticks:   dense  smooth     PW     G-vecs:    dense   smooth      PW
     Min          42      37     11                 1628     1335     211
     Max          43      38     12                 1637     1344     215
     Sum         859     745    223                32631    26741    4259

     Using Slab Decomposition



     bravais-lattice index     =            4
     lattice parameter (alat)  =       6.2531  a.u.
     unit-cell volume          =     337.5249 (a.u.)^3
     number of atoms/cell      =            2
     number of atomic types    =            1
     number of electrons       =        22.00
     number of Kohn-Sham states=           15
     kinetic-energy cutoff     =      70.0000  Ry
     charge density cutoff     =     320.0000  Ry
     scf convergence threshold =      1.0E-08
     mixing beta               =       0.7000
     number of iterations used =            8  plain     mixing
     Exchange-correlation= SLA  PZ   NOGX NOGC
                           (   1   1   0   0   0   0   0)

     celldm(1)=   6.253104  celldm(2)=   0.000000  celldm(3)=   1.594000
     celldm(4)=   0.000000  celldm(5)=   0.000000  celldm(6)=   0.000000

     crystal axes: (cart. coord. in units of alat)
               a(1) = (   1.000000   0.000000   0.000000 )  
               a(2) = (  -0.500000   0.866025   0.000000 )  
               a(3) = (   0.000000   0.000000   1.594000 )  

     reciprocal axes: (cart. coord. in units 2 pi/alat)
               b(1) = (  1.000000  0.577350 -0.000000 )  
               b(2) = (  0.000000  1.154701  0.000000 )  
               b(3) = (  0.000000 -0.000000  0.627353 )  


     PseudoPot. # 1 for Sc read from file:
     ../../../Sc.pz-spn-kjpaw_psl.1.0.0.UPF
     MD5 check sum: 1f9095df0bb42a6568b4e9f256ff075f
     Pseudo is Projector augmented-wave + core cor, Zval = 11.0
     Generated using 'atomic' code by A. Dal Corso  v.7.1
     Shape of augmentation charge: PSQ
     Using radial grid of 1173 points,  6 beta functions with: 
                l(1) =   0
                l(2) =   0
                l(3) =   1
                l(4) =   1
                l(5) =   2
                l(6) =   2
     Q(r) pseudized with 0 coefficients 


     atomic species   valence    mass     pseudopotential
        Sc            11.00    44.59600     Sc( 1.00)

     24 Sym. Ops., with inversion, found (12 have fractional translation)



   Cartesian axes

     site n.     atom                  positions (alat units)
         1           Sc  tau(   1) = (   0.0000000   0.0000000   0.0000000  )
         2           Sc  tau(   2) = (   0.5000000   0.2886751   0.7970000  )

     number of k points=    95  Marzari-Vanderbilt smearing, width (Ry)=  0.0200
                       cart. coord. in units 2pi/alat
        k(    1) = (   0.0000000   0.0000000   0.0000000), wk =   0.0017361
        k(    2) = (   0.0000000   0.0000000   0.0784191), wk =   0.0034722
        k(    3) = (   0.0000000   0.0000000   0.1568381), wk =   0.0034722
        k(    4) = (   0.0000000   0.0000000   0.2352572), wk =   0.0034722
        k(    5) = (   0.0000000   0.0000000  -0.3136763), wk =   0.0017361
        k(    6) = (   0.0000000   0.0962250   0.0000000), wk =   0.0104167
        k(    7) = (   0.0000000   0.0962250   0.0784191), wk =   0.0208333
        k(    8) = (   0.0000000   0.0962250   0.1568381), wk =   0.0208333
        k(    9) = (   0.0000000   0.0962250   0.2352572), wk =   0.0208333
        k(   10) = (   0.0000000   0.0962250  -0.3136763), wk =   0.0104167
        k(   11) = (   0.0000000   0.1924501   0.0000000), wk =   0.0104167
        k(   12) = (   0.0000000   0.1924501   0.0784191), wk =   0.0208333
        k(   13) = (   0.0000000   0.1924501   0.1568381), wk =   0.0208333
        k(   14) = (   0.0000000   0.1924501   0.2352572), wk =   0.0208333
        k(   15) = (   0.0000000   0.1924501  -0.3136763), wk =   0.0104167
        k(   16) = (   0.0000000   0.2886751   0.0000000), wk =   0.0104167
        k(   17) = (   0.0000000   0.2886751   0.0784191), wk =   0.0208333
        k(   18) = (   0.0000000   0.2886751   0.1568381), wk =   0.0208333
        k(   19) = (   0.0000000   0.2886751   0.2352572), wk =   0.0208333
        k(   20) = (   0.0000000   0.2886751  -0.3136763), wk =   0.0104167
        k(   21) = (   0.0000000   0.3849002   0.0000000), wk =   0.0104167
        k(   22) = (   0.0000000   0.3849002   0.0784191), wk =   0.0208333
        k(   23) = (   0.0000000   0.3849002   0.1568381), wk =   0.0208333
        k(   24) = (   0.0000000   0.3849002   0.2352572), wk =   0.0208333
        k(   25) = (   0.0000000   0.3849002  -0.3136763), wk =   0.0104167
        k(   26) = (   0.0000000   0.4811252   0.0000000), wk =   0.0104167
        k(   27) = (   0.0000000   0.4811252   0.0784191), wk =   0.0208333
        k(   28) = (   0.0000000   0.4811252   0.1568381), wk =   0.0208333
        k(   29) = (   0.0000000   0.4811252   0.2352572), wk =   0.0208333
        k(   30) = (   0.0000000   0.4811252  -0.3136763), wk =   0.0104167
        k(   31) = (   0.0000000  -0.5773503   0.0000000), wk =   0.0052083
        k(   32) = (   0.0000000  -0.5773503   0.0784191), wk =   0.0104167
        k(   33) = (   0.0000000  -0.5773503   0.1568381), wk =   0.0104167
        k(   34) = (   0.0000000  -0.5773503   0.2352572), wk =   0.0104167
        k(   35) = (   0.0000000  -0.5773503  -0.3136763), wk =   0.0052083
        k(   36) = (   0.0833333   0.1443376   0.0000000), wk =   0.0104167
        k(   37) = (   0.0833333   0.1443376   0.0784191), wk =   0.0208333
        k(   38) = (   0.0833333   0.1443376   0.1568381), wk =   0.0208333
        k(   39) = (   0.0833333   0.1443376   0.2352572), wk =   0.0208333
        k(   40) = (   0.0833333   0.1443376  -0.3136763), wk =   0.0104167
        k(   41) = (   0.0833333   0.2405626   0.0000000), wk =   0.0208333
        k(   42) = (   0.0833333   0.2405626   0.0784191), wk =   0.0416667
        k(   43) = (   0.0833333   0.2405626   0.1568381), wk =   0.0416667
        k(   44) = (   0.0833333   0.2405626   0.2352572), wk =   0.0416667
        k(   45) = (   0.0833333   0.2405626  -0.3136763), wk =   0.0208333
        k(   46) = (   0.0833333   0.3367877   0.0000000), wk =   0.0208333
        k(   47) = (   0.0833333   0.3367877   0.0784191), wk =   0.0416667
        k(   48) = (   0.0833333   0.3367877   0.1568381), wk =   0.0416667
        k(   49) = (   0.0833333   0.3367877   0.2352572), wk =   0.0416667
        k(   50) = (   0.0833333   0.3367877  -0.3136763), wk =   0.0208333
        k(   51) = (   0.0833333   0.4330127   0.0000000), wk =   0.0208333
        k(   52) = (   0.0833333   0.4330127   0.0784191), wk =   0.0416667
        k(   53) = (   0.0833333   0.4330127   0.1568381), wk =   0.0416667
        k(   54) = (   0.0833333   0.4330127   0.2352572), wk =   0.0416667
        k(   55) = (   0.0833333   0.4330127  -0.3136763), wk =   0.0208333
        k(   56) = (   0.0833333   0.5292377   0.0000000), wk =   0.0208333
        k(   57) = (   0.0833333   0.5292377   0.0784191), wk =   0.0416667
        k(   58) = (   0.0833333   0.5292377   0.1568381), wk =   0.0416667
        k(   59) = (   0.0833333   0.5292377   0.2352572), wk =   0.0416667
        k(   60) = (   0.0833333   0.5292377  -0.3136763), wk =   0.0208333
        k(   61) = (   0.1666667   0.2886751   0.0000000), wk =   0.0104167
        k(   62) = (   0.1666667   0.2886751   0.0784191), wk =   0.0208333
        k(   63) = (   0.1666667   0.2886751   0.1568381), wk =   0.0208333
        k(   64) = (   0.1666667   0.2886751   0.2352572), wk =   0.0208333
        k(   65) = (   0.1666667   0.2886751  -0.3136763), wk =   0.0104167
        k(   66) = (   0.1666667   0.3849002   0.0000000), wk =   0.0208333
        k(   67) = (   0.1666667   0.3849002   0.0784191), wk =   0.0416667
        k(   68) = (   0.1666667   0.3849002   0.1568381), wk =   0.0416667
        k(   69) = (   0.1666667   0.3849002   0.2352572), wk =   0.0416667
        k(   70) = (   0.1666667   0.3849002  -0.3136763), wk =   0.0208333
        k(   71) = (   0.1666667   0.4811252   0.0000000), wk =   0.0208333
        k(   72) = (   0.1666667   0.4811252   0.0784191), wk =   0.0416667
        k(   73) = (   0.1666667   0.4811252   0.1568381), wk =   0.0416667
        k(   74) = (   0.1666667   0.4811252   0.2352572), wk =   0.0416667
        k(   75) = (   0.1666667   0.4811252  -0.3136763), wk =   0.0208333
        k(   76) = (   0.1666667   0.5773503   0.0000000), wk =   0.0104167
        k(   77) = (   0.1666667   0.5773503   0.0784191), wk =   0.0208333
        k(   78) = (   0.1666667   0.5773503   0.1568381), wk =   0.0208333
        k(   79) = (   0.1666667   0.5773503   0.2352572), wk =   0.0208333
        k(   80) = (   0.1666667   0.5773503  -0.3136763), wk =   0.0104167
        k(   81) = (   0.2500000   0.4330127   0.0000000), wk =   0.0104167
        k(   82) = (   0.2500000   0.4330127   0.0784191), wk =   0.0208333
        k(   83) = (   0.2500000   0.4330127   0.1568381), wk =   0.0208333
        k(   84) = (   0.2500000   0.4330127   0.2352572), wk =   0.0208333
        k(   85) = (   0.2500000   0.4330127  -0.3136763), wk =   0.0104167
        k(   86) = (   0.2500000   0.5292377   0.0000000), wk =   0.0208333
        k(   87) = (   0.2500000   0.5292377   0.0784191), wk =   0.0416667
        k(   88) = (   0.2500000   0.5292377   0.1568381), wk =   0.0416667
        k(   89) = (   0.2500000   0.5292377   0.2352572), wk =   0.0416667
        k(   90) = (   0.2500000   0.5292377  -0.3136763), wk =   0.0208333
        k(   91) = (   0.3333333   0.5773503   0.0000000), wk =   0.0034722
        k(   92) = (   0.3333333   0.5773503   0.0784191), wk =   0.0069444
        k(   93) = (   0.3333333   0.5773503   0.1568381), wk =   0.0069444
        k(   94) = (   0.3333333   0.5773503   0.2352572), wk =   0.0069444
        k(   95) = (   0.3333333   0.5773503  -0.3136763), wk =   0.0034722

     Dense  grid:    32631 G-vectors     FFT dimensions: (  36,  36,  60)

     Smooth grid:    26741 G-vectors     FFT dimensions: (  36,  36,  54)

     Estimated max dynamical RAM per process >      10.80 MB

     Estimated total dynamical RAM >     215.92 MB

     Check: negative core charge=   -0.000015

     Initial potential from superposition of free atoms

     starting charge      21.9956, renormalised to      22.0000
     Starting wfcs are   20 randomized atomic wfcs
     Checking if some PAW data can be deallocated... 

     total cpu time spent up to now is        0.9 secs

     Self-consistent Calculation

     iteration #  1     ecut=    70.00 Ry     beta= 0.70
     Davidson diagonalization with overlap
     ethr =  1.00E-02,  avg # of iterations =  2.2

     Threshold (ethr) on eigenvalues was too large:
     Diagonalizing with lowered threshold

     Davidson diagonalization with overlap
     c_bands:  1 eigenvalues not converged
     c_bands:  1 eigenvalues not converged
     c_bands:  1 eigenvalues not converged
     c_bands:  1 eigenvalues not converged
     c_bands:  2 eigenvalues not converged
     c_bands:  1 eigenvalues not converged
     c_bands:  1 eigenvalues not converged
     c_bands:  2 eigenvalues not converged
     c_bands:  4 eigenvalues not converged
     c_bands:  1 eigenvalues not converged
     c_bands:  2 eigenvalues not converged
     c_bands:  2 eigenvalues not converged
     c_bands:  3 eigenvalues not converged
     c_bands:  2 eigenvalues not converged
     c_bands:  2 eigenvalues not converged
     c_bands:  1 eigenvalues not converged
     c_bands:  1 eigenvalues not converged
     c_bands:  2 eigenvalues not converged
     c_bands:  2 eigenvalues not converged
     c_bands:  2 eigenvalues not converged
     c_bands:  1 eigenvalues not converged
     c_bands:  1 eigenvalues not converged
     c_bands:  2 eigenvalues not converged
     c_bands:  1 eigenvalues not converged
     c_bands:  3 eigenvalues not converged
     c_bands:  4 eigenvalues not converged
     c_bands:  3 eigenvalues not converged
     c_bands:  1 eigenvalues not converged
     c_bands:  1 eigenvalues not converged
     c_bands:  1 eigenvalues not converged
     ethr =  1.59E-05,  avg # of iterations = 17.8

     total cpu time spent up to now is        7.7 secs

     total energy              =    -306.86626773 Ry
     estimated scf accuracy    <       0.02020185 Ry

     iteration #  2     ecut=    70.00 Ry     beta= 0.70
     Davidson diagonalization with overlap
     ethr =  9.18E-05,  avg # of iterations =  4.5

     total cpu time spent up to now is        9.4 secs

     total energy              =    -306.87115956 Ry
     estimated scf accuracy    <       0.00153337 Ry

     iteration #  3     ecut=    70.00 Ry     beta= 0.70
     Davidson diagonalization with overlap
     c_bands:  3 eigenvalues not converged
     c_bands:  1 eigenvalues not converged
     c_bands:  1 eigenvalues not converged
     ethr =  6.97E-06,  avg # of iterations =  8.7

     total cpu time spent up to now is       11.8 secs

     total energy              =    -306.87221329 Ry
     estimated scf accuracy    <       0.00031627 Ry

     iteration #  4     ecut=    70.00 Ry     beta= 0.70
     Davidson diagonalization with overlap
     c_bands:  3 eigenvalues not converged
     c_bands:  1 eigenvalues not converged
     ethr =  1.44E-06,  avg # of iterations =  7.5

     total cpu time spent up to now is       13.9 secs

     total energy              =    -306.87239941 Ry
     estimated scf accuracy    <       0.00015773 Ry

     iteration #  5     ecut=    70.00 Ry     beta= 0.70
     Davidson diagonalization with overlap
     ethr =  7.17E-07,  avg # of iterations =  6.5

     total cpu time spent up to now is       15.9 secs

     total energy              =    -306.87247502 Ry
     estimated scf accuracy    <       0.00001455 Ry

     iteration #  6     ecut=    70.00 Ry     beta= 0.70
     Davidson diagonalization with overlap
     ethr =  6.61E-08,  avg # of iterations =  8.6

     total cpu time spent up to now is       18.0 secs

     total energy              =    -306.87247578 Ry
     estimated scf accuracy    <       0.00001788 Ry

     iteration #  7     ecut=    70.00 Ry     beta= 0.70
     Davidson diagonalization with overlap
     ethr =  6.61E-08,  avg # of iterations =  6.0

     total cpu time spent up to now is       19.9 secs

     total energy              =    -306.87248212 Ry
     estimated scf accuracy    <       0.00000168 Ry

     iteration #  8     ecut=    70.00 Ry     beta= 0.70
     Davidson diagonalization with overlap
     c_bands:  1 eigenvalues not converged
     ethr =  7.65E-09,  avg # of iterations =  7.9

     total cpu time spent up to now is       21.9 secs

     total energy              =    -306.87248330 Ry
     estimated scf accuracy    <       0.00000012 Ry

     iteration #  9     ecut=    70.00 Ry     beta= 0.70
     Davidson diagonalization with overlap
     c_bands:  1 eigenvalues not converged
     ethr =  5.45E-10,  avg # of iterations = 12.1

     total cpu time spent up to now is       24.8 secs

     total energy              =    -306.87248354 Ry
     estimated scf accuracy    <       0.00000006 Ry

     iteration # 10     ecut=    70.00 Ry     beta= 0.70
     Davidson diagonalization with overlap
     ethr =  2.84E-10,  avg # of iterations =  5.3

     total cpu time spent up to now is       26.6 secs

     End of self-consistent calculation

          k = 0.0000 0.0000 0.0000 (  3381 PWs)   bands (ev):

   -40.1390 -40.0747 -19.2241 -18.8905 -18.8905 -18.8322 -18.8322 -18.8152
     3.7530   7.1408   9.3014  10.3523  10.3523  10.4623  10.7558

          k = 0.0000 0.0000 0.0784 (  3363 PWs)   bands (ev):

   -40.1366 -40.0771 -19.2090 -18.8883 -18.8883 -18.8344 -18.8344 -18.8312
     3.8543   6.9871   9.2704  10.3096  10.3096  10.3972  10.7002

          k = 0.0000 0.0000 0.1568 (  3315 PWs)   bands (ev):

   -40.1296 -40.0841 -19.1659 -18.8820 -18.8820 -18.8767 -18.8407 -18.8407
     4.1513   6.5418   9.2783  10.2149  10.2473  10.2474  10.5656

          k = 0.0000 0.0000 0.2353 (  3320 PWs)   bands (ev):

   -40.1192 -40.0946 -19.1007 -18.9443 -18.8725 -18.8725 -18.8502 -18.8502
     4.6230   5.9066   9.4190   9.9520  10.2353  10.2358  10.4131

          k = 0.0000 0.0000-0.3137 (  3326 PWs)   bands (ev):

   -40.1069 -40.1069 -19.0230 -19.0230 -18.8614 -18.8614 -18.8614 -18.8614
     5.2302   5.2302   9.6651   9.6651  10.2933  10.2933  10.2933

          k = 0.0000 0.0962 0.0000 (  3361 PWs)   bands (ev):

   -40.1357 -40.0733 -19.2153 -18.9088 -18.8966 -18.8512 -18.8348 -18.8189
     3.9043   7.2708   9.1759  10.0830  10.4618  10.6335  10.7107

          k = 0.0000 0.0962 0.0784 (  3360 PWs)   bands (ev):

   -40.1333 -40.0757 -19.2011 -18.9061 -18.8943 -18.8593 -18.8371 -18.8285
     4.0041   7.1167   9.1482  10.0791  10.4072  10.5046  10.6425

          k = 0.0000 0.0962 0.1568 (  3346 PWs)   bands (ev):

   -40.1266 -40.0825 -19.1606 -18.8992 -18.8926 -18.8876 -18.8449 -18.8438
     4.2969   6.6690   9.1710  10.0850  10.2338  10.3340  10.6498

          k = 0.0000 0.0962 0.2353 (  3345 PWs)   bands (ev):

   -40.1165 -40.0926 -19.0995 -18.9539 -18.8870 -18.8776 -18.8590 -18.8539
     4.7624   6.0343   9.3323   9.9187  10.1317  10.3192  10.3796

          k = 0.0000 0.0962-0.3137 (  3338 PWs)   bands (ev):

   -40.1046 -40.1046 -19.0269 -19.0269 -18.8733 -18.8733 -18.8657 -18.8657
     5.3629   5.3629   9.6009   9.6010  10.2322  10.2333  10.3771

          k = 0.0000 0.1925 0.0000 (  3355 PWs)   bands (ev):

   -40.1264 -40.0697 -19.1901 -18.9589 -18.9127 -18.9023 -18.8423 -18.8301
     4.3436   7.6192   8.8903   9.6718  10.4063  10.7809  10.8125

          k = 0.0000 0.1925 0.0784 (  3354 PWs)   bands (ev):

   -40.1243 -40.0719 -19.1790 -18.9548 -18.9119 -18.9100 -18.8450 -18.8364
     4.4385   7.4653   8.8741   9.6912  10.3977  10.5438  10.6297

          k = 0.0000 0.1925 0.1568 (  3354 PWs)   bands (ev):

   -40.1182 -40.0781 -19.1474 -18.9483 -18.9351 -18.9024 -18.8529 -18.8526
     4.7174   7.0142   8.9356   9.7479  10.1724  10.4061  10.5387

          k = 0.0000 0.1925 0.2353 (  3349 PWs)   bands (ev):

   -40.1090 -40.0873 -19.1000 -18.9888 -18.9216 -18.8910 -18.8750 -18.8641
     5.1618   6.3877   9.1373   9.7363   9.9557  10.2580  10.5325

          k = 0.0000 0.1925-0.3137 (  3340 PWs)   bands (ev):

   -40.0982 -40.0982 -19.0440 -19.0440 -18.8989 -18.8989 -18.8776 -18.8776
     5.7377   5.7377   9.4335   9.4336  10.0771  10.0771  10.6036

          k = 0.0000 0.2887 0.0000 (  3328 PWs)   bands (ev):

   -40.1132 -40.0654 -19.1522 -19.0281 -18.9701 -18.9339 -18.8532 -18.8488
     5.0251   8.0262   8.5829   9.2475  10.1870  10.4678  10.5681

          k = 0.0000 0.2887 0.0784 (  3329 PWs)   bands (ev):

   -40.1114 -40.0672 -19.1488 -19.0194 -18.9793 -18.9308 -18.8563 -18.8521
     5.1104   7.8776   8.5939   9.2782  10.1595  10.4080  10.5812

          k = 0.0000 0.2887 0.1568 (  3345 PWs)   bands (ev):

   -40.1063 -40.0725 -19.1370 -19.0152 -18.9844 -18.9221 -18.8651 -18.8638
     5.3608   7.4435   8.7114   9.3546  10.0135  10.2969  10.6307

          k = 0.0000 0.2887 0.2353 (  3344 PWs)   bands (ev):

   -40.0985 -40.0802 -19.1150 -19.0476 -18.9528 -18.9091 -18.8857 -18.8782
     5.7599   6.8656   8.9382   9.3921   9.8547  10.1271  10.7314

          k = 0.0000 0.2887-0.3137 (  3340 PWs)   bands (ev):

   -40.0894 -40.0894 -19.0838 -19.0838 -18.9168 -18.9168 -18.8937 -18.8937
     6.2777   6.2777   9.2105   9.2105   9.9299   9.9299  10.8841

          k = 0.0000 0.3849 0.0000 (  3326 PWs)   bands (ev):

   -40.0990 -40.0621 -19.1079 -19.0978 -19.0358 -18.9544 -18.8740 -18.8647
     5.8647   8.1856   8.3336   8.9126  10.2125  10.2207  10.3559

          k = 0.0000 0.3849 0.0784 (  3331 PWs)   bands (ev):

   -40.0976 -40.0635 -19.1343 -19.0670 -19.0402 -18.9510 -18.8740 -18.8682
     5.9317   8.0439   8.4029   8.9541  10.0678  10.2991  10.4053

          k = 0.0000 0.3849 0.1568 (  3326 PWs)   bands (ev):

   -40.0936 -40.0675 -19.1509 -19.0796 -19.0067 -18.9414 -18.8782 -18.8779
     6.1279   7.7110   8.5640   9.0423   9.9222  10.2488  10.5504

          k = 0.0000 0.3849 0.2353 (  3329 PWs)   bands (ev):

   -40.0877 -40.0735 -19.1513 -19.1100 -18.9609 -18.9269 -18.8931 -18.8926
     6.4386   7.2816   8.7868   9.0959   9.8349  10.0798  10.7804

          k = 0.0000 0.3849-0.3137 (  3338 PWs)   bands (ev):

   -40.0806 -40.0806 -19.1364 -19.1364 -18.9213 -18.9213 -18.9097 -18.9097
     6.8370   6.8370   9.0027   9.0027   9.8965   9.8965  11.0752

          k = 0.0000 0.4811 0.0000 (  3346 PWs)   bands (ev):

   -40.0873 -40.0610 -19.1492 -19.0828 -19.0666 -18.9691 -18.9012 -18.8734
     6.7161   8.0199   8.1766   8.6624  10.0498  10.2145  10.4260

          k = 0.0000 0.4811 0.0784 (  3337 PWs)   bands (ev):

   -40.0863 -40.0620 -19.1633 -19.0966 -19.0418 -18.9655 -18.8978 -18.8770
     6.7478   7.9239   8.2757   8.6929  10.0550  10.2765  10.3797

          k = 0.0000 0.4811 0.1568 (  3338 PWs)   bands (ev):

   -40.0834 -40.0649 -19.1820 -19.1251 -18.9977 -18.9552 -18.8940 -18.8875
     6.8444   7.7283   8.4690   8.7899  10.0419  10.2567  10.4592

          k = 0.0000 0.4811 0.2353 (  3334 PWs)   bands (ev):

   -40.0792 -40.0691 -19.1882 -19.1558 -18.9543 -18.9397 -18.9031 -18.8999
     7.0065   7.4798   8.6999   8.9005   9.9852  10.1068  10.7524

          k = 0.0000 0.4811-0.3137 (  3334 PWs)   bands (ev):

   -40.0741 -40.0741 -19.1788 -19.1788 -18.9215 -18.9215 -18.9202 -18.9202
     7.2259   7.2259   8.8830   8.8830   9.9883   9.9884  11.1365

          k = 0.0000-0.5774 0.0000 (  3326 PWs)   bands (ev):

   -40.0823 -40.0613 -19.1680 -19.0997 -19.0473 -18.9744 -18.9154 -18.8766
     7.2309   7.7840   8.1237   8.5471   9.9890  10.1653  10.5252

          k = 0.0000-0.5774 0.0784 (  3336 PWs)   bands (ev):

   -40.0815 -40.0621 -19.1792 -19.1124 -19.0283 -18.9707 -18.9101 -18.8803
     7.2106   7.7609   8.2345   8.5446  10.0439  10.2307  10.4542

          k = 0.0000-0.5774 0.1568 (  3330 PWs)   bands (ev):

   -40.0792 -40.0644 -19.1963 -19.1416 -18.9891 -18.9602 -18.9023 -18.8910
     7.1956   7.6680   8.4974   8.5960  10.1393  10.2746  10.4238

          k = 0.0000-0.5774 0.2353 (  3338 PWs)   bands (ev):

   -40.0758 -40.0678 -19.2031 -19.1724 -18.9494 -18.9444 -18.9070 -18.9034
     7.2393   7.5114   8.7341   8.7658  10.0919  10.1463  10.7347

          k = 0.0000-0.5774-0.3137 (  3352 PWs)   bands (ev):

   -40.0718 -40.0718 -19.1948 -19.1948 -18.9258 -18.9258 -18.9192 -18.9192
     7.3518   7.3518   8.8517   8.8517  10.0621  10.0621  11.1447

          k = 0.0833 0.1443 0.0000 (  3369 PWs)   bands (ev):

   -40.1294 -40.0709 -19.1983 -18.9395 -18.9157 -18.8793 -18.8423 -18.8263
     4.1998   7.5122   8.9757   9.7835  10.4868  10.6910  10.7616

          k = 0.0833 0.1443 0.0784 (  3357 PWs)   bands (ev):

   -40.1272 -40.0731 -19.1861 -18.9358 -18.9151 -18.8872 -18.8449 -18.8330
     4.2965   7.3579   8.9551   9.7986  10.4956  10.5103  10.5848

          k = 0.0833 0.1443 0.1568 (  3351 PWs)   bands (ev):

   -40.1209 -40.0795 -19.1513 -18.9290 -18.9254 -18.8972 -18.8521 -18.8489
     4.5803   6.9069   9.0038   9.8470  10.1987  10.4356  10.4925

          k = 0.0833 0.1443 0.2353 (  3348 PWs)   bands (ev):

   -40.1114 -40.0890 -19.0990 -18.9763 -18.9097 -18.8905 -18.8675 -18.8628
     5.0323   6.2759   9.1949   9.8123   9.9889  10.2877  10.4782

          k = 0.0833 0.1443-0.3137 (  3340 PWs)   bands (ev):

   -40.1002 -40.1002 -19.0372 -19.0372 -18.8920 -18.8920 -18.8740 -18.8740
     5.6173   5.6173   9.4879   9.4879  10.1177  10.1182  10.5343

          k = 0.0833 0.2406 0.0000 (  3334 PWs)   bands (ev):

   -40.1182 -40.0669 -19.1667 -18.9944 -18.9607 -18.9133 -18.8552 -18.8414
     4.7623   7.9095   8.6972   9.3727  10.2574  10.4631  10.7538

          k = 0.0833 0.2406 0.0784 (  3343 PWs)   bands (ev):

   -40.1162 -40.0689 -19.1594 -18.9885 -18.9647 -18.9165 -18.8584 -18.8447
     4.8519   7.7573   8.6933   9.4003  10.2665  10.3839  10.6778

          k = 0.0833 0.2406 0.1568 (  3347 PWs)   bands (ev):

   -40.1107 -40.0745 -19.1384 -18.9892 -18.9656 -18.9173 -18.8671 -18.8558
     5.1152   7.3079   8.7884   9.4757  10.0875  10.3027  10.6279

          k = 0.0833 0.2406 0.2353 (  3341 PWs)   bands (ev):

   -40.1024 -40.0828 -19.1057 -19.0235 -18.9407 -18.9107 -18.8804 -18.8735
     5.5351   6.7004   9.0113   9.5198   9.8728  10.1426  10.6800

          k = 0.0833 0.2406-0.3137 (  3324 PWs)   bands (ev):

   -40.0926 -40.0926 -19.0654 -19.0654 -18.9145 -18.9145 -18.8875 -18.8875
     6.0806   6.0806   9.3020   9.3021   9.9478   9.9479  10.7855

          k = 0.0833 0.3368 0.0000 (  3331 PWs)   bands (ev):

   -40.1044 -40.0631 -19.1253 -19.0626 -19.0154 -18.9449 -18.8691 -18.8637
     5.5302   8.2280   8.4420   8.9969  10.1536  10.2069  10.5119

          k = 0.0833 0.3368 0.0784 (  3332 PWs)   bands (ev):

   -40.1028 -40.0647 -19.1321 -19.0488 -19.0189 -18.9447 -18.8739 -18.8626
     5.6067   8.0792   8.4844   9.0346  10.0634  10.2733  10.4946

          k = 0.0833 0.3368 0.1568 (  3328 PWs)   bands (ev):

   -40.0984 -40.0692 -19.1376 -19.0543 -18.9985 -18.9400 -18.8845 -18.8664
     5.8311   7.6819   8.6325   9.1247   9.9205  10.2225  10.5647

          k = 0.0833 0.3368 0.2353 (  3338 PWs)   bands (ev):

   -40.0917 -40.0759 -19.1308 -19.0829 -18.9604 -18.9292 -18.8984 -18.8800
     6.1878   7.1699   8.8582   9.1970   9.7866  10.0298  10.7545

          k = 0.0833 0.3368-0.3137 (  3336 PWs)   bands (ev):

   -40.0838 -40.0838 -19.1112 -19.1112 -18.9306 -18.9306 -18.8991 -18.8991
     6.6489   6.6489   9.0945   9.0945   9.8313   9.8313  10.9917

          k = 0.0833 0.4330 0.0000 (  3333 PWs)   bands (ev):

   -40.0912 -40.0611 -19.1229 -19.0812 -19.0632 -18.9693 -18.8911 -18.8810
     6.3940   8.2001   8.2588   8.7324  10.0390  10.2798  10.3235

          k = 0.0833 0.4330 0.0784 (  3332 PWs)   bands (ev):

   -40.0901 -40.0623 -19.1420 -19.0813 -19.0457 -18.9668 -18.8925 -18.8803
     6.4462   8.0677   8.3530   8.7836   9.9876  10.2631  10.3669

          k = 0.0833 0.4330 0.1568 (  3328 PWs)   bands (ev):

   -40.0868 -40.0656 -19.1619 -19.1054 -19.0040 -18.9565 -18.9014 -18.8791
     6.5992   7.8141   8.5221   8.8965   9.8841  10.1562  10.5197

          k = 0.0833 0.4330 0.2353 (  3334 PWs)   bands (ev):

   -40.0819 -40.0704 -19.1674 -19.1344 -18.9677 -18.9382 -18.9144 -18.8859
     6.8408   7.4899   8.7457   8.9903   9.7971   9.9700  10.7705

          k = 0.0833 0.4330-0.3137 (  3344 PWs)   bands (ev):

   -40.0762 -40.0762 -19.1573 -19.1573 -18.9429 -18.9429 -18.9038 -18.9038
     7.1493   7.1493   8.9445   8.9445   9.8144   9.8145  11.0962

          k = 0.0833 0.5292 0.0000 (  3335 PWs)   bands (ev):

   -40.0823 -40.0613 -19.1578 -19.0908 -19.0476 -18.9827 -18.9151 -18.8879
     7.1527   7.9478   8.1653   8.5459   9.9732  10.1238  10.5205

          k = 0.0833 0.5292 0.0784 (  3338 PWs)   bands (ev):

   -40.0815 -40.0621 -19.1690 -19.1041 -19.0302 -18.9772 -18.9121 -18.8891
     7.1576   7.8963   8.2673   8.5680   9.9886  10.1308  10.5073

          k = 0.0833 0.5292 0.1568 (  3337 PWs)   bands (ev):

   -40.0792 -40.0643 -19.1861 -19.1331 -18.9993 -18.9591 -18.9150 -18.8885
     7.1894   7.7709   8.4863   8.6733   9.9890  10.0693  10.5800

          k = 0.0833 0.5292 0.2353 (  3337 PWs)   bands (ev):

   -40.0758 -40.0678 -19.1931 -19.1635 -18.9731 -18.9344 -18.9259 -18.8905
     7.2736   7.5946   8.7247   8.8478   9.8828   9.9540  10.8229

          k = 0.0833 0.5292-0.3137 (  3338 PWs)   bands (ev):

   -40.0718 -40.0718 -19.1853 -19.1853 -18.9506 -18.9506 -18.9043 -18.9043
     7.4151   7.4151   8.8930   8.8930   9.8460   9.8461  11.1734

          k = 0.1667 0.2887 0.0000 (  3336 PWs)   bands (ev):

   -40.1063 -40.0636 -19.1313 -19.0326 -19.0248 -18.9335 -18.8789 -18.8602
     5.4165   8.2646   8.4969   9.0011  10.1439  10.1626  10.6005

          k = 0.1667 0.2887 0.0784 (  3342 PWs)   bands (ev):

   -40.1047 -40.0652 -19.1331 -19.0290 -19.0193 -18.9387 -18.8819 -18.8595
     5.4962   8.1108   8.5268   9.0347  10.1122  10.1931  10.5459

          k = 0.1667 0.2887 0.1568 (  3339 PWs)   bands (ev):

   -40.1001 -40.0699 -19.1321 -19.0444 -18.9882 -18.9444 -18.8900 -18.8629
     5.7302   7.6835   8.6690   9.1276   9.9626  10.1837  10.5379

          k = 0.1667 0.2887 0.2353 (  3331 PWs)   bands (ev):

   -40.0932 -40.0768 -19.1210 -19.0708 -18.9538 -18.9414 -18.8993 -18.8761
     6.1032   7.1372   8.8968   9.2252   9.7797   9.9887  10.7119

          k = 0.1667 0.2887-0.3137 (  3332 PWs)   bands (ev):

   -40.0850 -40.0850 -19.0992 -19.0992 -18.9367 -18.9367 -18.8954 -18.8954
     6.5870   6.5870   9.1404   9.1404   9.7879   9.7879  10.9354

          k = 0.1667 0.3849 0.0000 (  3342 PWs)   bands (ev):

   -40.0934 -40.0613 -19.0891 -19.0883 -19.0594 -18.9660 -18.9013 -18.8858
     6.2281   8.3454   8.4207   8.7016   9.9500  10.2305  10.3590

          k = 0.1667 0.3849 0.0784 (  3328 PWs)   bands (ev):

   -40.0922 -40.0625 -19.1187 -19.0793 -19.0355 -18.9707 -18.9055 -18.8801
     6.2913   8.2264   8.4804   8.7470   9.9139  10.2542  10.3087

          k = 0.1667 0.3849 0.1568 (  3337 PWs)   bands (ev):

   -40.0887 -40.0660 -19.1392 -19.0933 -18.9971 -18.9716 -18.9140 -18.8744
     6.4763   7.9379   8.6254   8.8559   9.8179  10.0753  10.4342

          k = 0.1667 0.3849 0.2353 (  3338 PWs)   bands (ev):

   -40.0835 -40.0712 -19.1447 -19.1156 -18.9763 -18.9575 -18.9159 -18.8793
     6.7682   7.5507   8.8275   8.9816   9.6897   9.8323  10.6675

          k = 0.1667 0.3849-0.3137 (  3332 PWs)   bands (ev):

   -40.0774 -40.0774 -19.1355 -19.1355 -18.9625 -18.9625 -18.8966 -18.8966
     7.1404   7.1404   8.9964   8.9964   9.6589   9.6589  10.9763

          k = 0.1667 0.4811 0.0000 (  3339 PWs)   bands (ev):

   -40.0824 -40.0612 -19.1313 -19.0756 -19.0483 -18.9974 -18.9164 -18.9144
     7.0545   8.2472   8.2582   8.5344   9.8665  10.1086  10.4881

          k = 0.1667 0.4811 0.0784 (  3334 PWs)   bands (ev):

   -40.0816 -40.0620 -19.1418 -19.0922 -19.0303 -18.9920 -18.9254 -18.9013
     7.0898   8.1466   8.3494   8.6059   9.8387  10.0455  10.5066

          k = 0.1667 0.4811 0.1568 (  3335 PWs)   bands (ev):

   -40.0793 -40.0643 -19.1595 -19.1177 -19.0163 -18.9673 -18.9340 -18.8877
     7.1933   7.9894   8.5113   8.7664   9.7495   9.8710  10.5944

          k = 0.1667 0.4811 0.2353 (  3335 PWs)   bands (ev):

   -40.0758 -40.0677 -19.1683 -19.1441 -19.0016 -18.9650 -18.9188 -18.8841
     7.3572   7.7867   8.7399   8.9351   9.6203   9.6396  10.7820

          k = 0.1667 0.4811-0.3137 (  3334 PWs)   bands (ev):

   -40.0718 -40.0718 -19.1628 -19.1628 -18.9829 -18.9829 -18.8951 -18.8951
     7.5644   7.5644   8.9487   8.9487   9.5257   9.5257  11.0663

          k = 0.1667 0.5774 0.0000 (  3320 PWs)   bands (ev):

   -40.0775 -40.0620 -19.1469 -19.0799 -19.0275 -19.0108 -18.9307 -18.9217
     7.5576   8.0302   8.2307   8.4395   9.9104   9.9423  10.6165

          k = 0.1667 0.5774 0.0784 (  3332 PWs)   bands (ev):

   -40.0769 -40.0626 -19.1552 -19.0937 -19.0328 -18.9874 -18.9373 -18.9108
     7.5496   8.0172   8.3223   8.4718   9.8739   9.9067  10.6295

          k = 0.1667 0.5774 0.1568 (  3334 PWs)   bands (ev):

   -40.0752 -40.0643 -19.1704 -19.1236 -19.0270 -18.9506 -18.9503 -18.8946
     7.5562   7.9554   8.5532   8.5923   9.7671   9.7744  10.7072

          k = 0.1667 0.5774 0.2353 (  3339 PWs)   bands (ev):

   -40.0727 -40.0668 -19.1784 -19.1532 -19.0112 -18.9692 -18.9166 -18.8870
     7.6109   7.8418   8.7994   8.8363   9.5556   9.5949  10.8857

          k = 0.1667 0.5774-0.3137 (  3336 PWs)   bands (ev):

   -40.0697 -40.0697 -19.1729 -19.1729 -18.9906 -18.9906 -18.8942 -18.8942
     7.7140   7.7140   8.9790   8.9790   9.4333   9.4334  11.1553

          k = 0.2500 0.4330 0.0000 (  3348 PWs)   bands (ev):

   -40.0825 -40.0612 -19.1085 -19.0788 -19.0486 -18.9968 -18.9373 -18.9141
     7.0187   8.3110   8.4428   8.4834   9.7906  10.1185  10.4550

          k = 0.2500 0.4330 0.0784 (  3335 PWs)   bands (ev):

   -40.0816 -40.0620 -19.1106 -19.1069 -19.0163 -19.0070 -18.9397 -18.9034
     7.0656   8.2490   8.4799   8.5595   9.7745  10.0142  10.4653

          k = 0.2500 0.4330 0.1568 (  3332 PWs)   bands (ev):

   -40.0793 -40.0643 -19.1353 -19.1198 -19.0181 -18.9832 -18.9391 -18.8877
     7.2008   8.1111   8.5895   8.7179   9.7079   9.7709  10.5222

          k = 0.2500 0.4330 0.2353 (  3340 PWs)   bands (ev):

   -40.0759 -40.0677 -19.1497 -19.1360 -19.0143 -18.9843 -18.9160 -18.8823
     7.4077   7.9065   8.7595   8.8943   9.5133   9.5718  10.6816

          k = 0.2500 0.4330-0.3137 (  3344 PWs)   bands (ev):

   -40.0718 -40.0718 -19.1489 -19.1489 -19.0000 -19.0000 -18.8923 -18.8923
     7.6571   7.6571   8.9276   8.9276   9.4315   9.4315  10.9667

          k = 0.2500 0.5292 0.0000 (  3334 PWs)   bands (ev):

   -40.0741 -40.0631 -19.1238 -19.0676 -19.0315 -19.0123 -18.9600 -18.9433
     7.7103   8.2602   8.3131   8.3779   9.7647   9.8929  10.6791

          k = 0.2500 0.5292 0.0784 (  3339 PWs)   bands (ev):

   -40.0736 -40.0635 -19.1268 -19.0865 -19.0469 -18.9870 -18.9643 -18.9266
     7.7386   8.2331   8.3455   8.4666   9.7243   9.7977  10.6834

          k = 0.2500 0.5292 0.1568 (  3337 PWs)   bands (ev):

   -40.0724 -40.0647 -19.1391 -19.1136 -19.0566 -18.9862 -18.9394 -18.9023
     7.8168   8.1897   8.4693   8.6498   9.5481   9.6103  10.7187

          k = 0.2500 0.5292 0.2353 (  3342 PWs)   bands (ev):

   -40.0707 -40.0665 -19.1515 -19.1377 -19.0466 -19.0049 -18.9078 -18.8879
     7.9261   8.1299   8.6736   8.8875   9.2481   9.4071  10.8327

          k = 0.2500 0.5292-0.3137 (  3336 PWs)   bands (ev):

   -40.0686 -40.0686 -19.1517 -19.1517 -19.0268 -19.0268 -18.8894 -18.8894
     8.0393   8.0393   8.9388   8.9388   9.1570   9.1570  11.0624

          k = 0.3333 0.5774 0.0000 (  3360 PWs)   bands (ev):

   -40.0674 -40.0674 -19.1143 -19.0529 -19.0529 -18.9857 -18.9765 -18.9765
     8.1593   8.1593   8.2628   8.3494   9.7613   9.7613  10.7738

          k = 0.3333 0.5774 0.0784 (  3339 PWs)   bands (ev):

   -40.0674 -40.0674 -19.1094 -19.0744 -19.0744 -18.9907 -18.9548 -18.9548
     8.2051   8.2051   8.2819   8.3681   9.6838   9.6838  10.7726

          k = 0.3333 0.5774 0.1568 (  3330 PWs)   bands (ev):

   -40.0674 -40.0674 -19.1075 -19.1075 -19.0956 -19.0048 -18.9210 -18.9210
     8.3322   8.3356   8.3356   8.4108   9.4833   9.4833  10.7895

          k = 0.3333 0.5774 0.2353 (  3327 PWs)   bands (ev):

   -40.0674 -40.0674 -19.1315 -19.1315 -19.0749 -19.0257 -18.8963 -18.8963
     8.3946   8.4449   8.5236   8.5236   9.2331   9.2332  10.8760

          k = 0.3333 0.5774-0.3137 (  3336 PWs)   bands (ev):

   -40.0674 -40.0674 -19.1401 -19.1401 -19.0504 -19.0504 -18.8875 -18.8875
     8.4402   8.4402   8.6544   8.6544   9.0784   9.0784  11.0803

     the Fermi energy is     8.8159 ev

!    total energy              =    -306.87248356 Ry
     total all-electron energy =     -3050.013254 Ry
     estimated scf accuracy    <          7.7E-10 Ry
     smearing contrib. (-TS)   =      -0.00103941 Ry
     internal energy E=F+TS    =    -306.87144415 Ry

     The total energy is F=E-TS. E is the sum of the following terms:
     one-electron contribution =     -74.40498864 Ry
     hartree contribution      =      42.28431818 Ry
     xc contribution           =     -34.52767765 Ry
     ewald contribution        =    -126.46581261 Ry
     one-center paw contrib.   =    -113.75728344 Ry

     convergence has been achieved in  10 iterations

     Writing all to output data dir sc_rhocut.out/scandium.save/

     init_run     :      0.70s CPU      0.73s WALL (       1 calls)
     electrons    :     24.45s CPU     25.75s WALL (       1 calls)

     Called by init_run:
     wfcinit      :      0.52s CPU      0.54s WALL (       1 calls)
     potinit      :      0.05s CPU      0.05s WALL (       1 calls)
     hinit0       :      0.10s CPU      0.11s WALL (       1 calls)

     Called by electrons:
     c_bands      :     22.12s CPU     23.25s WALL (      11 calls)
     sum_band     :      1.91s CPU      1.98s WALL (      11 calls)
     v_of_rho     :      0.01s CPU      0.01s WALL (      11 calls)
     newd         :      0.11s CPU      0.11s WALL (      11 calls)
     PAW_pot      :      0.33s CPU      0.33s WALL (      11 calls)
     mix_rho      :      0.01s CPU      0.01s WALL (      11 calls)

     Called by c_bands:
     init_us_2    :      0.21s CPU      0.23s WALL (    2185 calls)
     init_us_2:cp :      0.21s CPU      0.22s WALL (    2185 calls)
     cegterg      :     21.62s CPU     22.38s WALL (    1046 calls)

     Called by *egterg:
     cdiaghg      :      2.75s CPU      2.83s WALL (    9235 calls)
     h_psi        :     14.54s CPU     15.12s WALL (    9426 calls)
     s_psi        :      0.82s CPU      0.85s WALL (    9426 calls)
     g_psi        :      0.08s CPU      0.08s WALL (    8285 calls)

     Called by h_psi:
     h_psi:calbec :      1.13s CPU      1.17s WALL (    9426 calls)
     vloc_psi     :     12.51s CPU     13.01s WALL (    9426 calls)
     add_vuspsi   :      0.82s CPU      0.85s WALL (    9426 calls)

     General routines
     calbec       :      1.33s CPU      1.39s WALL (   10471 calls)
     fft          :      0.01s CPU      0.02s WALL (      65 calls)
     ffts         :      0.00s CPU      0.00s WALL (      22 calls)
     fftw         :     12.87s CPU     13.38s WALL (  156025 calls)
     interpolate  :      0.00s CPU      0.00s WALL (      11 calls)

     Parallel routines

     PWSCF        :     25.54s CPU     27.23s WALL


   This run was terminated on:  14:33:32  26Jul2023            

=------------------------------------------------------------------------------=
   JOB DONE.
=------------------------------------------------------------------------------=
