
     Program PWSCF v.7.2 starts on 26Jul2023 at 12:16:43 

     This program is part of the open-source Quantum ESPRESSO suite
     for quantum simulation of materials; please cite
         "P. Giannozzi et al., J. Phys.:Condens. Matter 21 395502 (2009);
         "P. Giannozzi et al., J. Phys.:Condens. Matter 29 465901 (2017);
         "P. Giannozzi et al., J. Chem. Phys. 152 154105 (2020);
          URL http://www.quantum-espresso.org", 
     in publications or presentations arising from this work. More details at
     http://www.quantum-espresso.org/quote

     Parallel version (MPI), running on    20 processors

     MPI processes distributed on     1 nodes
     317032 MiB available memory on the printing compute node when the environment starts

     Waiting for input...
     Reading input from standard input

     Current dimensions of program PWSCF are:
     Max number of different atomic species (ntypx) = 10
     Max number of k-points (npk) = 120000
     Max angular momentum in pseudopotentials (lmaxx) =  4
     file Sc.pz-spn-kjpaw_psl.1.0.0.UPF: wavefunction(s)  3S 3P 3D renormalized

     R & G space division:  proc/nbgrp/npool/nimage =      20
     Subspace diagonalization in iterative solution of the eigenvalue problem:
     a serial algorithm will be used


     Parallelization info
     --------------------
     sticks:   dense  smooth     PW     G-vecs:    dense   smooth      PW
     Min          64      64     18                 2992     2992     452
     Max          65      65     19                 3001     3001     457
     Sum        1285    1285    367                59901    59901    9067

     Using Slab Decomposition



     bravais-lattice index     =            4
     lattice parameter (alat)  =       6.2531  a.u.
     unit-cell volume          =     337.5249 (a.u.)^3
     number of atoms/cell      =            2
     number of atomic types    =            1
     number of electrons       =        22.00
     number of Kohn-Sham states=           15
     kinetic-energy cutoff     =     120.0000  Ry
     charge density cutoff     =     480.0000  Ry
     scf convergence threshold =      1.0E-08
     mixing beta               =       0.7000
     number of iterations used =            8  plain     mixing
     Exchange-correlation= SLA  PZ   NOGX NOGC
                           (   1   1   0   0   0   0   0)

     celldm(1)=   6.253104  celldm(2)=   0.000000  celldm(3)=   1.594000
     celldm(4)=   0.000000  celldm(5)=   0.000000  celldm(6)=   0.000000

     crystal axes: (cart. coord. in units of alat)
               a(1) = (   1.000000   0.000000   0.000000 )  
               a(2) = (  -0.500000   0.866025   0.000000 )  
               a(3) = (   0.000000   0.000000   1.594000 )  

     reciprocal axes: (cart. coord. in units 2 pi/alat)
               b(1) = (  1.000000  0.577350 -0.000000 )  
               b(2) = (  0.000000  1.154701  0.000000 )  
               b(3) = (  0.000000 -0.000000  0.627353 )  


     PseudoPot. # 1 for Sc read from file:
     ../../Sc.pz-spn-kjpaw_psl.1.0.0.UPF
     MD5 check sum: 1f9095df0bb42a6568b4e9f256ff075f
     Pseudo is Projector augmented-wave + core cor, Zval = 11.0
     Generated using 'atomic' code by A. Dal Corso  v.7.1
     Shape of augmentation charge: PSQ
     Using radial grid of 1173 points,  6 beta functions with: 
                l(1) =   0
                l(2) =   0
                l(3) =   1
                l(4) =   1
                l(5) =   2
                l(6) =   2
     Q(r) pseudized with 0 coefficients 


     atomic species   valence    mass     pseudopotential
        Sc            11.00    44.59600     Sc( 1.00)

     24 Sym. Ops., with inversion, found (12 have fractional translation)



   Cartesian axes

     site n.     atom                  positions (alat units)
         1           Sc  tau(   1) = (   0.0000000   0.0000000   0.0000000  )
         2           Sc  tau(   2) = (   0.5000000   0.2886751   0.7970000  )

     number of k points=    95  Marzari-Vanderbilt smearing, width (Ry)=  0.0200
                       cart. coord. in units 2pi/alat
        k(    1) = (   0.0000000   0.0000000   0.0000000), wk =   0.0017361
        k(    2) = (   0.0000000   0.0000000   0.0784191), wk =   0.0034722
        k(    3) = (   0.0000000   0.0000000   0.1568381), wk =   0.0034722
        k(    4) = (   0.0000000   0.0000000   0.2352572), wk =   0.0034722
        k(    5) = (   0.0000000   0.0000000  -0.3136763), wk =   0.0017361
        k(    6) = (   0.0000000   0.0962250   0.0000000), wk =   0.0104167
        k(    7) = (   0.0000000   0.0962250   0.0784191), wk =   0.0208333
        k(    8) = (   0.0000000   0.0962250   0.1568381), wk =   0.0208333
        k(    9) = (   0.0000000   0.0962250   0.2352572), wk =   0.0208333
        k(   10) = (   0.0000000   0.0962250  -0.3136763), wk =   0.0104167
        k(   11) = (   0.0000000   0.1924501   0.0000000), wk =   0.0104167
        k(   12) = (   0.0000000   0.1924501   0.0784191), wk =   0.0208333
        k(   13) = (   0.0000000   0.1924501   0.1568381), wk =   0.0208333
        k(   14) = (   0.0000000   0.1924501   0.2352572), wk =   0.0208333
        k(   15) = (   0.0000000   0.1924501  -0.3136763), wk =   0.0104167
        k(   16) = (   0.0000000   0.2886751   0.0000000), wk =   0.0104167
        k(   17) = (   0.0000000   0.2886751   0.0784191), wk =   0.0208333
        k(   18) = (   0.0000000   0.2886751   0.1568381), wk =   0.0208333
        k(   19) = (   0.0000000   0.2886751   0.2352572), wk =   0.0208333
        k(   20) = (   0.0000000   0.2886751  -0.3136763), wk =   0.0104167
        k(   21) = (   0.0000000   0.3849002   0.0000000), wk =   0.0104167
        k(   22) = (   0.0000000   0.3849002   0.0784191), wk =   0.0208333
        k(   23) = (   0.0000000   0.3849002   0.1568381), wk =   0.0208333
        k(   24) = (   0.0000000   0.3849002   0.2352572), wk =   0.0208333
        k(   25) = (   0.0000000   0.3849002  -0.3136763), wk =   0.0104167
        k(   26) = (   0.0000000   0.4811252   0.0000000), wk =   0.0104167
        k(   27) = (   0.0000000   0.4811252   0.0784191), wk =   0.0208333
        k(   28) = (   0.0000000   0.4811252   0.1568381), wk =   0.0208333
        k(   29) = (   0.0000000   0.4811252   0.2352572), wk =   0.0208333
        k(   30) = (   0.0000000   0.4811252  -0.3136763), wk =   0.0104167
        k(   31) = (   0.0000000  -0.5773503   0.0000000), wk =   0.0052083
        k(   32) = (   0.0000000  -0.5773503   0.0784191), wk =   0.0104167
        k(   33) = (   0.0000000  -0.5773503   0.1568381), wk =   0.0104167
        k(   34) = (   0.0000000  -0.5773503   0.2352572), wk =   0.0104167
        k(   35) = (   0.0000000  -0.5773503  -0.3136763), wk =   0.0052083
        k(   36) = (   0.0833333   0.1443376   0.0000000), wk =   0.0104167
        k(   37) = (   0.0833333   0.1443376   0.0784191), wk =   0.0208333
        k(   38) = (   0.0833333   0.1443376   0.1568381), wk =   0.0208333
        k(   39) = (   0.0833333   0.1443376   0.2352572), wk =   0.0208333
        k(   40) = (   0.0833333   0.1443376  -0.3136763), wk =   0.0104167
        k(   41) = (   0.0833333   0.2405626   0.0000000), wk =   0.0208333
        k(   42) = (   0.0833333   0.2405626   0.0784191), wk =   0.0416667
        k(   43) = (   0.0833333   0.2405626   0.1568381), wk =   0.0416667
        k(   44) = (   0.0833333   0.2405626   0.2352572), wk =   0.0416667
        k(   45) = (   0.0833333   0.2405626  -0.3136763), wk =   0.0208333
        k(   46) = (   0.0833333   0.3367877   0.0000000), wk =   0.0208333
        k(   47) = (   0.0833333   0.3367877   0.0784191), wk =   0.0416667
        k(   48) = (   0.0833333   0.3367877   0.1568381), wk =   0.0416667
        k(   49) = (   0.0833333   0.3367877   0.2352572), wk =   0.0416667
        k(   50) = (   0.0833333   0.3367877  -0.3136763), wk =   0.0208333
        k(   51) = (   0.0833333   0.4330127   0.0000000), wk =   0.0208333
        k(   52) = (   0.0833333   0.4330127   0.0784191), wk =   0.0416667
        k(   53) = (   0.0833333   0.4330127   0.1568381), wk =   0.0416667
        k(   54) = (   0.0833333   0.4330127   0.2352572), wk =   0.0416667
        k(   55) = (   0.0833333   0.4330127  -0.3136763), wk =   0.0208333
        k(   56) = (   0.0833333   0.5292377   0.0000000), wk =   0.0208333
        k(   57) = (   0.0833333   0.5292377   0.0784191), wk =   0.0416667
        k(   58) = (   0.0833333   0.5292377   0.1568381), wk =   0.0416667
        k(   59) = (   0.0833333   0.5292377   0.2352572), wk =   0.0416667
        k(   60) = (   0.0833333   0.5292377  -0.3136763), wk =   0.0208333
        k(   61) = (   0.1666667   0.2886751   0.0000000), wk =   0.0104167
        k(   62) = (   0.1666667   0.2886751   0.0784191), wk =   0.0208333
        k(   63) = (   0.1666667   0.2886751   0.1568381), wk =   0.0208333
        k(   64) = (   0.1666667   0.2886751   0.2352572), wk =   0.0208333
        k(   65) = (   0.1666667   0.2886751  -0.3136763), wk =   0.0104167
        k(   66) = (   0.1666667   0.3849002   0.0000000), wk =   0.0208333
        k(   67) = (   0.1666667   0.3849002   0.0784191), wk =   0.0416667
        k(   68) = (   0.1666667   0.3849002   0.1568381), wk =   0.0416667
        k(   69) = (   0.1666667   0.3849002   0.2352572), wk =   0.0416667
        k(   70) = (   0.1666667   0.3849002  -0.3136763), wk =   0.0208333
        k(   71) = (   0.1666667   0.4811252   0.0000000), wk =   0.0208333
        k(   72) = (   0.1666667   0.4811252   0.0784191), wk =   0.0416667
        k(   73) = (   0.1666667   0.4811252   0.1568381), wk =   0.0416667
        k(   74) = (   0.1666667   0.4811252   0.2352572), wk =   0.0416667
        k(   75) = (   0.1666667   0.4811252  -0.3136763), wk =   0.0208333
        k(   76) = (   0.1666667   0.5773503   0.0000000), wk =   0.0104167
        k(   77) = (   0.1666667   0.5773503   0.0784191), wk =   0.0208333
        k(   78) = (   0.1666667   0.5773503   0.1568381), wk =   0.0208333
        k(   79) = (   0.1666667   0.5773503   0.2352572), wk =   0.0208333
        k(   80) = (   0.1666667   0.5773503  -0.3136763), wk =   0.0104167
        k(   81) = (   0.2500000   0.4330127   0.0000000), wk =   0.0104167
        k(   82) = (   0.2500000   0.4330127   0.0784191), wk =   0.0208333
        k(   83) = (   0.2500000   0.4330127   0.1568381), wk =   0.0208333
        k(   84) = (   0.2500000   0.4330127   0.2352572), wk =   0.0208333
        k(   85) = (   0.2500000   0.4330127  -0.3136763), wk =   0.0104167
        k(   86) = (   0.2500000   0.5292377   0.0000000), wk =   0.0208333
        k(   87) = (   0.2500000   0.5292377   0.0784191), wk =   0.0416667
        k(   88) = (   0.2500000   0.5292377   0.1568381), wk =   0.0416667
        k(   89) = (   0.2500000   0.5292377   0.2352572), wk =   0.0416667
        k(   90) = (   0.2500000   0.5292377  -0.3136763), wk =   0.0208333
        k(   91) = (   0.3333333   0.5773503   0.0000000), wk =   0.0034722
        k(   92) = (   0.3333333   0.5773503   0.0784191), wk =   0.0069444
        k(   93) = (   0.3333333   0.5773503   0.1568381), wk =   0.0069444
        k(   94) = (   0.3333333   0.5773503   0.2352572), wk =   0.0069444
        k(   95) = (   0.3333333   0.5773503  -0.3136763), wk =   0.0034722

     Dense  grid:    59901 G-vectors     FFT dimensions: (  45,  45,  72)

     Estimated max dynamical RAM per process >      20.57 MB

     Estimated total dynamical RAM >     411.41 MB

     Check: negative core charge=   -0.000004

     Initial potential from superposition of free atoms

     starting charge      21.9956, renormalised to      22.0000
     Starting wfcs are   20 randomized atomic wfcs
     Checking if some PAW data can be deallocated... 

     total cpu time spent up to now is        1.6 secs

     Self-consistent Calculation

     iteration #  1     ecut=   120.00 Ry     beta= 0.70
     Davidson diagonalization with overlap
     ethr =  1.00E-02,  avg # of iterations =  2.1

     Threshold (ethr) on eigenvalues was too large:
     Diagonalizing with lowered threshold

     Davidson diagonalization with overlap
     c_bands:  1 eigenvalues not converged
     c_bands:  1 eigenvalues not converged
     c_bands:  2 eigenvalues not converged
     c_bands:  1 eigenvalues not converged
     c_bands:  2 eigenvalues not converged
     c_bands:  2 eigenvalues not converged
     c_bands:  3 eigenvalues not converged
     c_bands:  3 eigenvalues not converged
     c_bands:  2 eigenvalues not converged
     c_bands:  4 eigenvalues not converged
     c_bands:  2 eigenvalues not converged
     c_bands:  2 eigenvalues not converged
     c_bands:  3 eigenvalues not converged
     c_bands:  1 eigenvalues not converged
     c_bands:  3 eigenvalues not converged
     c_bands:  1 eigenvalues not converged
     c_bands:  1 eigenvalues not converged
     c_bands:  5 eigenvalues not converged
     c_bands:  1 eigenvalues not converged
     c_bands:  4 eigenvalues not converged
     c_bands:  4 eigenvalues not converged
     c_bands:  1 eigenvalues not converged
     c_bands:  2 eigenvalues not converged
     c_bands:  2 eigenvalues not converged
     c_bands:  1 eigenvalues not converged
     c_bands:  3 eigenvalues not converged
     ethr =  2.42E-05,  avg # of iterations = 17.5

     total cpu time spent up to now is       14.3 secs

     total energy              =    -306.86748226 Ry
     estimated scf accuracy    <       0.02002343 Ry

     iteration #  2     ecut=   120.00 Ry     beta= 0.70
     Davidson diagonalization with overlap
     ethr =  9.10E-05,  avg # of iterations =  4.6

     total cpu time spent up to now is       17.1 secs

     total energy              =    -306.87251351 Ry
     estimated scf accuracy    <       0.00141833 Ry

     iteration #  3     ecut=   120.00 Ry     beta= 0.70
     Davidson diagonalization with overlap
     c_bands:  1 eigenvalues not converged
     ethr =  6.45E-06,  avg # of iterations =  8.5

     total cpu time spent up to now is       21.5 secs

     total energy              =    -306.87355763 Ry
     estimated scf accuracy    <       0.00030415 Ry

     iteration #  4     ecut=   120.00 Ry     beta= 0.70
     Davidson diagonalization with overlap
     c_bands:  1 eigenvalues not converged
     ethr =  1.38E-06,  avg # of iterations =  7.1

     total cpu time spent up to now is       25.2 secs

     total energy              =    -306.87373423 Ry
     estimated scf accuracy    <       0.00015758 Ry

     iteration #  5     ecut=   120.00 Ry     beta= 0.70
     Davidson diagonalization with overlap
     ethr =  7.16E-07,  avg # of iterations =  6.5

     total cpu time spent up to now is       28.4 secs

     total energy              =    -306.87381458 Ry
     estimated scf accuracy    <       0.00001930 Ry

     iteration #  6     ecut=   120.00 Ry     beta= 0.70
     Davidson diagonalization with overlap
     ethr =  8.77E-08,  avg # of iterations =  7.9

     total cpu time spent up to now is       31.9 secs

     total energy              =    -306.87381656 Ry
     estimated scf accuracy    <       0.00001850 Ry

     iteration #  7     ecut=   120.00 Ry     beta= 0.70
     Davidson diagonalization with overlap
     ethr =  8.41E-08,  avg # of iterations =  5.1

     total cpu time spent up to now is       34.8 secs

     total energy              =    -306.87382215 Ry
     estimated scf accuracy    <       0.00000005 Ry

     iteration #  8     ecut=   120.00 Ry     beta= 0.70
     Davidson diagonalization with overlap
     c_bands:  1 eigenvalues not converged
     c_bands:  2 eigenvalues not converged
     c_bands:  2 eigenvalues not converged
     c_bands:  1 eigenvalues not converged
     c_bands:  2 eigenvalues not converged
     c_bands:  1 eigenvalues not converged
     c_bands:  3 eigenvalues not converged
     c_bands:  2 eigenvalues not converged
     c_bands:  3 eigenvalues not converged
     c_bands:  2 eigenvalues not converged
     c_bands:  1 eigenvalues not converged
     c_bands:  1 eigenvalues not converged
     c_bands:  3 eigenvalues not converged
     c_bands:  2 eigenvalues not converged
     c_bands:  1 eigenvalues not converged
     c_bands:  4 eigenvalues not converged
     c_bands:  3 eigenvalues not converged
     c_bands:  2 eigenvalues not converged
     c_bands:  3 eigenvalues not converged
     c_bands:  3 eigenvalues not converged
     c_bands:  1 eigenvalues not converged
     c_bands:  3 eigenvalues not converged
     c_bands:  3 eigenvalues not converged
     c_bands:  2 eigenvalues not converged
     c_bands:  4 eigenvalues not converged
     c_bands:  1 eigenvalues not converged
     c_bands:  4 eigenvalues not converged
     c_bands:  3 eigenvalues not converged
     c_bands:  1 eigenvalues not converged
     c_bands:  2 eigenvalues not converged
     c_bands:  3 eigenvalues not converged
     c_bands:  1 eigenvalues not converged
     c_bands:  3 eigenvalues not converged
     c_bands:  1 eigenvalues not converged
     c_bands:  2 eigenvalues not converged
     c_bands:  2 eigenvalues not converged
     c_bands:  1 eigenvalues not converged
     c_bands:  2 eigenvalues not converged
     c_bands:  3 eigenvalues not converged
     c_bands:  3 eigenvalues not converged
     c_bands:  1 eigenvalues not converged
     c_bands:  2 eigenvalues not converged
     c_bands:  4 eigenvalues not converged
     c_bands:  2 eigenvalues not converged
     c_bands:  3 eigenvalues not converged
     c_bands:  2 eigenvalues not converged
     c_bands:  2 eigenvalues not converged
     c_bands:  4 eigenvalues not converged
     c_bands:  3 eigenvalues not converged
     c_bands:  2 eigenvalues not converged
     c_bands:  3 eigenvalues not converged
     c_bands:  3 eigenvalues not converged
     c_bands:  3 eigenvalues not converged
     c_bands:  5 eigenvalues not converged
     c_bands:  3 eigenvalues not converged
     c_bands:  3 eigenvalues not converged
     c_bands:  4 eigenvalues not converged
     c_bands:  1 eigenvalues not converged
     c_bands:  5 eigenvalues not converged
     c_bands:  2 eigenvalues not converged
     c_bands:  4 eigenvalues not converged
     c_bands:  4 eigenvalues not converged
     c_bands:  3 eigenvalues not converged
     c_bands:  3 eigenvalues not converged
     c_bands:  3 eigenvalues not converged
     c_bands:  4 eigenvalues not converged
     c_bands:  3 eigenvalues not converged
     c_bands:  2 eigenvalues not converged
     c_bands:  3 eigenvalues not converged
     c_bands:  2 eigenvalues not converged
     c_bands:  4 eigenvalues not converged
     c_bands:  4 eigenvalues not converged
     c_bands:  4 eigenvalues not converged
     c_bands:  2 eigenvalues not converged
     c_bands:  1 eigenvalues not converged
     c_bands:  2 eigenvalues not converged
     c_bands:  1 eigenvalues not converged
     c_bands:  4 eigenvalues not converged
     c_bands:  3 eigenvalues not converged
     c_bands:  4 eigenvalues not converged
     c_bands:  4 eigenvalues not converged
     c_bands:  4 eigenvalues not converged
     c_bands:  4 eigenvalues not converged
     ethr =  2.39E-10,  avg # of iterations = 20.8

     total cpu time spent up to now is       46.4 secs

     total energy              =    -306.87382425 Ry
     estimated scf accuracy    <       0.00000025 Ry

     iteration #  9     ecut=   120.00 Ry     beta= 0.70
     Davidson diagonalization with overlap
     ethr =  2.39E-10,  avg # of iterations =  5.9

     total cpu time spent up to now is       49.0 secs

     total energy              =    -306.87382418 Ry
     estimated scf accuracy    <       0.00000012 Ry

     iteration # 10     ecut=   120.00 Ry     beta= 0.70
     Davidson diagonalization with overlap
     ethr =  2.39E-10,  avg # of iterations =  6.8

     total cpu time spent up to now is       52.6 secs

     total energy              =    -306.87382424 Ry
     estimated scf accuracy    <       0.00000003 Ry

     iteration # 11     ecut=   120.00 Ry     beta= 0.70
     Davidson diagonalization with overlap
     ethr =  1.20E-10,  avg # of iterations =  2.3

     total cpu time spent up to now is       54.8 secs

     End of self-consistent calculation

          k = 0.0000 0.0000 0.0000 (  7499 PWs)   bands (ev):

   -40.1388 -40.0745 -19.2240 -18.8905 -18.8905 -18.8321 -18.8321 -18.8151
     3.7531   7.1392   9.3011  10.3500  10.3500  10.4602  10.7538

          k = 0.0000 0.0000 0.0784 (  7469 PWs)   bands (ev):

   -40.1364 -40.0770 -19.2090 -18.8883 -18.8883 -18.8343 -18.8343 -18.8312
     3.8543   6.9859   9.2703  10.3073  10.3073  10.3950  10.6981

          k = 0.0000 0.0000 0.1568 (  7451 PWs)   bands (ev):

   -40.1295 -40.0840 -19.1658 -18.8820 -18.8820 -18.8768 -18.8407 -18.8407
     4.1513   6.5411   9.2771  10.2122  10.2448  10.2449  10.5632

          k = 0.0000 0.0000 0.2353 (  7493 PWs)   bands (ev):

   -40.1191 -40.0945 -19.1007 -18.9443 -18.8725 -18.8725 -18.8502 -18.8502
     4.6230   5.9063   9.4171   9.9496  10.2329  10.2330  10.4107

          k = 0.0000 0.0000-0.3137 (  7438 PWs)   bands (ev):

   -40.1068 -40.1068 -19.0230 -19.0230 -18.8614 -18.8614 -18.8614 -18.8614
     5.2301   5.2301   9.6629   9.6629  10.2909  10.2909  10.2909

          k = 0.0000 0.0962 0.0000 (  7473 PWs)   bands (ev):

   -40.1355 -40.0731 -19.2152 -18.9087 -18.8966 -18.8512 -18.8347 -18.8188
     3.9044   7.2691   9.1758  10.0808  10.4595  10.6274  10.6891

          k = 0.0000 0.0962 0.0784 (  7470 PWs)   bands (ev):

   -40.1332 -40.0755 -19.2011 -18.9061 -18.8942 -18.8592 -18.8371 -18.8285
     4.0041   7.1155   9.1476  10.0768  10.4050  10.5025  10.6280

          k = 0.0000 0.0962 0.1568 (  7453 PWs)   bands (ev):

   -40.1264 -40.0823 -19.1606 -18.8991 -18.8926 -18.8875 -18.8448 -18.8438
     4.2969   6.6684   9.1695  10.0827  10.2313  10.3317  10.5257

          k = 0.0000 0.0962 0.2353 (  7452 PWs)   bands (ev):

   -40.1163 -40.0925 -19.0995 -18.9539 -18.8869 -18.8775 -18.8590 -18.8539
     4.7624   6.0340   9.3303   9.9164  10.1295  10.3168  10.3776

          k = 0.0000 0.0962-0.3137 (  7450 PWs)   bands (ev):

   -40.1044 -40.1044 -19.0269 -19.0269 -18.8733 -18.8733 -18.8657 -18.8657
     5.3628   5.3628   9.5987   9.5987  10.2300  10.2303  10.3748

          k = 0.0000 0.1925 0.0000 (  7493 PWs)   bands (ev):

   -40.1263 -40.0696 -19.1900 -18.9589 -18.9126 -18.9023 -18.8422 -18.8301
     4.3436   7.6175   8.8895   9.6696  10.4042  10.7773  10.8100

          k = 0.0000 0.1925 0.0784 (  7482 PWs)   bands (ev):

   -40.1241 -40.0718 -19.1790 -18.9547 -18.9119 -18.9100 -18.8449 -18.8364
     4.4385   7.4640   8.8730   9.6889  10.3953  10.5403  10.6276

          k = 0.0000 0.1925 0.1568 (  7474 PWs)   bands (ev):

   -40.1180 -40.0779 -19.1474 -18.9482 -18.9351 -18.9024 -18.8528 -18.8526
     4.7174   7.0136   8.9338   9.7457  10.1701  10.4046  10.5365

          k = 0.0000 0.1925 0.2353 (  7464 PWs)   bands (ev):

   -40.1089 -40.0872 -19.0999 -18.9887 -18.9215 -18.8910 -18.8749 -18.8640
     5.1617   6.3874   9.1351   9.7340   9.9535  10.2561  10.5306

          k = 0.0000 0.1925-0.3137 (  7478 PWs)   bands (ev):

   -40.0980 -40.0980 -19.0440 -19.0440 -18.8989 -18.8989 -18.8775 -18.8775
     5.7375   5.7375   9.4312   9.4312  10.0749  10.0750  10.6014

          k = 0.0000 0.2887 0.0000 (  7493 PWs)   bands (ev):

   -40.1131 -40.0653 -19.1522 -19.0280 -18.9701 -18.9338 -18.8532 -18.8488
     5.0251   8.0244   8.5814   9.2453  10.1849  10.4656  10.5658

          k = 0.0000 0.2887 0.0784 (  7489 PWs)   bands (ev):

   -40.1113 -40.0671 -19.1487 -19.0193 -18.9793 -18.9308 -18.8563 -18.8521
     5.1103   7.8763   8.5922   9.2760  10.1572  10.4059  10.5789

          k = 0.0000 0.2887 0.1568 (  7487 PWs)   bands (ev):

   -40.1061 -40.0723 -19.1369 -19.0152 -18.9844 -18.9221 -18.8651 -18.8637
     5.3607   7.4428   8.7093   9.3526  10.0113  10.2949  10.6284

          k = 0.0000 0.2887 0.2353 (  7496 PWs)   bands (ev):

   -40.0984 -40.0801 -19.1150 -19.0475 -18.9527 -18.9091 -18.8857 -18.8782
     5.7597   6.8652   8.9360   9.3900   9.8525  10.1252  10.7291

          k = 0.0000 0.2887-0.3137 (  7502 PWs)   bands (ev):

   -40.0892 -40.0892 -19.0838 -19.0838 -18.9168 -18.9168 -18.8936 -18.8936
     6.2775   6.2775   9.2082   9.2083   9.9278   9.9280  10.8820

          k = 0.0000 0.3849 0.0000 (  7479 PWs)   bands (ev):

   -40.0989 -40.0620 -19.1078 -19.0978 -19.0358 -18.9543 -18.8740 -18.8647
     5.8644   8.1836   8.3319   8.9108  10.2106  10.2186  10.3534

          k = 0.0000 0.3849 0.0784 (  7498 PWs)   bands (ev):

   -40.0975 -40.0634 -19.1342 -19.0669 -19.0402 -18.9509 -18.8740 -18.8681
     5.9314   8.0422   8.4008   8.9524  10.0657  10.2973  10.4029

          k = 0.0000 0.3849 0.1568 (  7502 PWs)   bands (ev):

   -40.0935 -40.0674 -19.1509 -19.0795 -19.0067 -18.9413 -18.8782 -18.8779
     6.1276   7.7097   8.5618   9.0405   9.9201  10.2470  10.5480

          k = 0.0000 0.3849 0.2353 (  7502 PWs)   bands (ev):

   -40.0875 -40.0734 -19.1513 -19.1100 -18.9609 -18.9268 -18.8931 -18.8925
     6.4381   7.2806   8.7846   9.0941   9.8330  10.0781  10.7782

          k = 0.0000 0.3849-0.3137 (  7512 PWs)   bands (ev):

   -40.0805 -40.0805 -19.1364 -19.1364 -18.9213 -18.9213 -18.9097 -18.9097
     6.8363   6.8363   9.0007   9.0007   9.8947   9.8947  11.0731

          k = 0.0000 0.4811 0.0000 (  7489 PWs)   bands (ev):

   -40.0871 -40.0609 -19.1491 -19.0827 -19.0666 -18.9690 -18.9012 -18.8734
     6.7155   8.0179   8.1746   8.6613  10.0480  10.2121  10.4241

          k = 0.0000 0.4811 0.0784 (  7497 PWs)   bands (ev):

   -40.0861 -40.0619 -19.1632 -19.0966 -19.0418 -18.9654 -18.8978 -18.8770
     6.7471   7.9221   8.2736   8.6916  10.0534  10.2741  10.3778

          k = 0.0000 0.4811 0.1568 (  7506 PWs)   bands (ev):

   -40.0833 -40.0647 -19.1819 -19.1251 -18.9977 -18.9551 -18.8940 -18.8875
     6.8435   7.7267   8.4670   8.7884  10.0405  10.2551  10.4568

          k = 0.0000 0.4811 0.2353 (  7501 PWs)   bands (ev):

   -40.0790 -40.0690 -19.1882 -19.1557 -18.9543 -18.9397 -18.9031 -18.8999
     7.0053   7.4783   8.6980   8.8988   9.9836  10.1053  10.7501

          k = 0.0000 0.4811-0.3137 (  7480 PWs)   bands (ev):

   -40.0740 -40.0740 -19.1788 -19.1788 -18.9214 -18.9214 -18.9201 -18.9201
     7.2246   7.2246   8.8812   8.8812   9.9872   9.9875  11.1344

          k = 0.0000-0.5774 0.0000 (  7500 PWs)   bands (ev):

   -40.0821 -40.0612 -19.1679 -19.0997 -19.0472 -18.9743 -18.9154 -18.8766
     7.2298   7.7824   8.1213   8.5461   9.9872  10.1628  10.5233

          k = 0.0000-0.5774 0.0784 (  7494 PWs)   bands (ev):

   -40.0813 -40.0619 -19.1791 -19.1124 -19.0283 -18.9706 -18.9101 -18.8803
     7.2093   7.7594   8.2326   8.5433  10.0424  10.2282  10.4523

          k = 0.0000-0.5774 0.1568 (  7514 PWs)   bands (ev):

   -40.0791 -40.0642 -19.1963 -19.1415 -18.9890 -18.9601 -18.9023 -18.8910
     7.1940   7.6666   8.4958   8.5943  10.1383  10.2727  10.4214

          k = 0.0000-0.5774 0.2353 (  7516 PWs)   bands (ev):

   -40.0757 -40.0676 -19.2031 -19.1724 -18.9493 -18.9444 -18.9070 -18.9034
     7.2376   7.5099   8.7323   8.7644  10.0902  10.1457  10.7325

          k = 0.0000-0.5774-0.3137 (  7488 PWs)   bands (ev):

   -40.0716 -40.0716 -19.1947 -19.1947 -18.9257 -18.9257 -18.9192 -18.9192
     7.3502   7.3502   8.8500   8.8500  10.0613  10.0613  11.1428

          k = 0.0833 0.1443 0.0000 (  7485 PWs)   bands (ev):

   -40.1292 -40.0707 -19.1982 -18.9394 -18.9156 -18.8792 -18.8423 -18.8263
     4.1999   7.5106   8.9750   9.7814  10.4848  10.6889  10.7594

          k = 0.0833 0.1443 0.0784 (  7492 PWs)   bands (ev):

   -40.1270 -40.0729 -19.1860 -18.9358 -18.9151 -18.8872 -18.8448 -18.8330
     4.2965   7.3567   8.9540   9.7965  10.4927  10.5082  10.5821

          k = 0.0833 0.1443 0.1568 (  7477 PWs)   bands (ev):

   -40.1207 -40.0793 -19.1512 -18.9290 -18.9253 -18.8972 -18.8521 -18.8489
     4.5803   6.9063   9.0022   9.8448  10.1964  10.4326  10.4903

          k = 0.0833 0.1443 0.2353 (  7455 PWs)   bands (ev):

   -40.1112 -40.0888 -19.0989 -18.9763 -18.9097 -18.8905 -18.8674 -18.8628
     5.0323   6.2757   9.1929   9.8101   9.9866  10.2853  10.4760

          k = 0.0833 0.1443-0.3137 (  7456 PWs)   bands (ev):

   -40.1001 -40.1001 -19.0372 -19.0372 -18.8920 -18.8920 -18.8740 -18.8740
     5.6172   5.6172   9.4856   9.4856  10.1156  10.1157  10.5321

          k = 0.0833 0.2406 0.0000 (  7495 PWs)   bands (ev):

   -40.1180 -40.0668 -19.1666 -18.9944 -18.9607 -18.9133 -18.8552 -18.8414
     4.7623   7.9077   8.6960   9.3705  10.2553  10.4606  10.7539

          k = 0.0833 0.2406 0.0784 (  7500 PWs)   bands (ev):

   -40.1161 -40.0687 -19.1594 -18.9884 -18.9647 -18.9165 -18.8583 -18.8447
     4.8519   7.7560   8.6918   9.3982  10.2644  10.3821  10.6764

          k = 0.0833 0.2406 0.1568 (  7480 PWs)   bands (ev):

   -40.1106 -40.0743 -19.1383 -18.9892 -18.9655 -18.9172 -18.8671 -18.8558
     5.1152   7.3072   8.7864   9.4736  10.0851  10.3006  10.6257

          k = 0.0833 0.2406 0.2353 (  7471 PWs)   bands (ev):

   -40.1023 -40.0826 -19.1056 -19.0235 -18.9407 -18.9106 -18.8803 -18.8735
     5.5350   6.7000   9.0090   9.5176   9.8704  10.1405  10.6777

          k = 0.0833 0.2406-0.3137 (  7482 PWs)   bands (ev):

   -40.0925 -40.0925 -19.0654 -19.0654 -18.9145 -18.9145 -18.8875 -18.8875
     6.0804   6.0804   9.2996   9.2997   9.9456   9.9457  10.7833

          k = 0.0833 0.3368 0.0000 (  7496 PWs)   bands (ev):

   -40.1043 -40.0630 -19.1252 -19.0626 -19.0153 -18.9448 -18.8691 -18.8637
     5.5301   8.2261   8.4405   8.9949  10.1515  10.2046  10.5098

          k = 0.0833 0.3368 0.0784 (  7492 PWs)   bands (ev):

   -40.1027 -40.0646 -19.1321 -19.0488 -19.0188 -18.9447 -18.8739 -18.8625
     5.6065   8.0777   8.4824   9.0327  10.0611  10.2713  10.4925

          k = 0.0833 0.3368 0.1568 (  7486 PWs)   bands (ev):

   -40.0983 -40.0691 -19.1375 -19.0543 -18.9985 -18.9400 -18.8845 -18.8664
     5.8309   7.6809   8.6303   9.1227   9.9183  10.2205  10.5625

          k = 0.0833 0.3368 0.2353 (  7489 PWs)   bands (ev):

   -40.0916 -40.0758 -19.1307 -19.0829 -18.9604 -18.9292 -18.8984 -18.8799
     6.1875   7.1693   8.8561   9.1949   9.7844  10.0277  10.7523

          k = 0.0833 0.3368-0.3137 (  7494 PWs)   bands (ev):

   -40.0837 -40.0837 -19.1112 -19.1112 -18.9306 -18.9306 -18.8991 -18.8991
     6.6484   6.6484   9.0924   9.0924   9.8292   9.8292  10.9895

          k = 0.0833 0.4330 0.0000 (  7489 PWs)   bands (ev):

   -40.0911 -40.0610 -19.1229 -19.0812 -19.0631 -18.9693 -18.8911 -18.8810
     6.3936   8.1979   8.2569   8.7309  10.0369  10.2774  10.3214

          k = 0.0833 0.4330 0.0784 (  7489 PWs)   bands (ev):

   -40.0899 -40.0621 -19.1420 -19.0812 -19.0457 -18.9667 -18.8924 -18.8803
     6.4458   8.0658   8.3508   8.7820   9.9856  10.2612  10.3647

          k = 0.0833 0.4330 0.1568 (  7505 PWs)   bands (ev):

   -40.0867 -40.0654 -19.1619 -19.1053 -19.0040 -18.9564 -18.9014 -18.8791
     6.5986   7.8125   8.5199   8.8949   9.8822  10.1542  10.5175

          k = 0.0833 0.4330 0.2353 (  7496 PWs)   bands (ev):

   -40.0818 -40.0703 -19.1674 -19.1343 -18.9677 -18.9382 -18.9144 -18.8858
     6.8400   7.4886   8.7437   8.9887   9.7953   9.9683  10.7685

          k = 0.0833 0.4330-0.3137 (  7494 PWs)   bands (ev):

   -40.0760 -40.0760 -19.1572 -19.1572 -18.9429 -18.9429 -18.9038 -18.9038
     7.1483   7.1483   8.9426   8.9426   9.8128   9.8128  11.0942

          k = 0.0833 0.5292 0.0000 (  7483 PWs)   bands (ev):

   -40.0822 -40.0611 -19.1578 -19.0908 -19.0476 -18.9827 -18.9151 -18.8879
     7.1519   7.9460   8.1630   8.5447   9.9713  10.1214  10.5186

          k = 0.0833 0.5292 0.0784 (  7496 PWs)   bands (ev):

   -40.0814 -40.0619 -19.1689 -19.1040 -19.0302 -18.9772 -18.9121 -18.8891
     7.1566   7.8946   8.2653   8.5666   9.9869  10.1286  10.5055

          k = 0.0833 0.5292 0.1568 (  7499 PWs)   bands (ev):

   -40.0791 -40.0642 -19.1860 -19.1330 -18.9993 -18.9590 -18.9150 -18.8885
     7.1881   7.7693   8.4844   8.6717   9.9876  10.0674  10.5778

          k = 0.0833 0.5292 0.2353 (  7511 PWs)   bands (ev):

   -40.0757 -40.0676 -19.1931 -19.1634 -18.9731 -18.9344 -18.9258 -18.8905
     7.2721   7.5930   8.7228   8.8463   9.8811   9.9530  10.8209

          k = 0.0833 0.5292-0.3137 (  7510 PWs)   bands (ev):

   -40.0716 -40.0716 -19.1852 -19.1852 -18.9505 -18.9505 -18.9042 -18.9042
     7.4135   7.4135   8.8912   8.8912   9.8448   9.8448  11.1715

          k = 0.1667 0.2887 0.0000 (  7511 PWs)   bands (ev):

   -40.1062 -40.0634 -19.1312 -19.0325 -19.0248 -18.9335 -18.8788 -18.8602
     5.4164   8.2628   8.4953   8.9989  10.1420  10.1602  10.5986

          k = 0.1667 0.2887 0.0784 (  7508 PWs)   bands (ev):

   -40.1046 -40.0651 -19.1331 -19.0290 -19.0192 -18.9387 -18.8818 -18.8595
     5.4961   8.1095   8.5249   9.0326  10.1099  10.1911  10.5439

          k = 0.1667 0.2887 0.1568 (  7492 PWs)   bands (ev):

   -40.1000 -40.0697 -19.1320 -19.0444 -18.9881 -18.9443 -18.8899 -18.8629
     5.7301   7.6827   8.6668   9.1254   9.9604  10.1817  10.5357

          k = 0.1667 0.2887 0.2353 (  7481 PWs)   bands (ev):

   -40.0930 -40.0767 -19.1209 -19.0708 -18.9538 -18.9413 -18.8992 -18.8761
     6.1029   7.1366   8.8945   9.2230   9.7773   9.9866  10.7095

          k = 0.1667 0.2887-0.3137 (  7474 PWs)   bands (ev):

   -40.0848 -40.0848 -19.0991 -19.0991 -18.9366 -18.9366 -18.8954 -18.8954
     6.5866   6.5866   9.1382   9.1382   9.7857   9.7857  10.9334

          k = 0.1667 0.3849 0.0000 (  7505 PWs)   bands (ev):

   -40.0933 -40.0612 -19.0890 -19.0883 -19.0593 -18.9660 -18.9012 -18.8858
     6.2278   8.3436   8.4186   8.6997   9.9478  10.2285  10.3570

          k = 0.1667 0.3849 0.0784 (  7496 PWs)   bands (ev):

   -40.0921 -40.0624 -19.1186 -19.0793 -19.0354 -18.9707 -18.9055 -18.8801
     6.2910   8.2247   8.4783   8.7451   9.9116  10.2522  10.3066

          k = 0.1667 0.3849 0.1568 (  7497 PWs)   bands (ev):

   -40.0886 -40.0659 -19.1391 -19.0932 -18.9971 -18.9716 -18.9140 -18.8744
     6.4759   7.9365   8.6233   8.8541   9.8158  10.0733  10.4322

          k = 0.1667 0.3849 0.2353 (  7490 PWs)   bands (ev):

   -40.0834 -40.0711 -19.1446 -19.1156 -18.9763 -18.9575 -18.9159 -18.8793
     6.7677   7.5497   8.8254   8.9797   9.6876   9.8302  10.6653

          k = 0.1667 0.3849-0.3137 (  7480 PWs)   bands (ev):

   -40.0772 -40.0772 -19.1355 -19.1355 -18.9625 -18.9625 -18.8966 -18.8966
     7.1397   7.1397   8.9944   8.9944   9.6567   9.6567  10.9743

          k = 0.1667 0.4811 0.0000 (  7495 PWs)   bands (ev):

   -40.0823 -40.0610 -19.1313 -19.0756 -19.0482 -18.9974 -18.9163 -18.9144
     7.0539   8.2451   8.2560   8.5329   9.8644  10.1065  10.4863

          k = 0.1667 0.4811 0.0784 (  7497 PWs)   bands (ev):

   -40.0815 -40.0618 -19.1418 -19.0921 -19.0303 -18.9920 -18.9254 -18.9013
     7.0891   8.1448   8.3471   8.6043   9.8367  10.0434  10.5047

          k = 0.1667 0.4811 0.1568 (  7500 PWs)   bands (ev):

   -40.0792 -40.0641 -19.1595 -19.1177 -19.0163 -18.9672 -18.9340 -18.8876
     7.1925   7.9877   8.5091   8.7649   9.7477   9.8690  10.5925

          k = 0.1667 0.4811 0.2353 (  7496 PWs)   bands (ev):

   -40.0757 -40.0676 -19.1682 -19.1441 -19.0016 -18.9650 -18.9188 -18.8840
     7.3561   7.7852   8.7379   8.9336   9.6186   9.6376  10.7800

          k = 0.1667 0.4811-0.3137 (  7494 PWs)   bands (ev):

   -40.0716 -40.0716 -19.1628 -19.1628 -18.9829 -18.9829 -18.8951 -18.8951
     7.5631   7.5631   8.9470   8.9470   9.5238   9.5238  11.0643

          k = 0.1667 0.5774 0.0000 (  7499 PWs)   bands (ev):

   -40.0773 -40.0619 -19.1468 -19.0799 -19.0275 -19.0108 -18.9307 -18.9217
     7.5564   8.0287   8.2282   8.4378   9.9085   9.9400  10.6144

          k = 0.1667 0.5774 0.0784 (  7497 PWs)   bands (ev):

   -40.0767 -40.0625 -19.1551 -19.0937 -19.0328 -18.9874 -18.9373 -18.9107
     7.5482   8.0158   8.3203   8.4700   9.8722   9.9045  10.6275

          k = 0.1667 0.5774 0.1568 (  7497 PWs)   bands (ev):

   -40.0750 -40.0642 -19.1703 -19.1236 -19.0269 -18.9505 -18.9503 -18.8946
     7.5547   7.9541   8.5516   8.5903   9.7657   9.7722  10.7055

          k = 0.1667 0.5774 0.2353 (  7505 PWs)   bands (ev):

   -40.0725 -40.0667 -19.1784 -19.1532 -19.0112 -18.9691 -18.9165 -18.8870
     7.6092   7.8403   8.7973   8.8351   9.5534   9.5937  10.8838

          k = 0.1667 0.5774-0.3137 (  7522 PWs)   bands (ev):

   -40.0696 -40.0696 -19.1728 -19.1728 -18.9905 -18.9905 -18.8941 -18.8941
     7.7123   7.7123   8.9774   8.9774   9.4317   9.4317  11.1533

          k = 0.2500 0.4330 0.0000 (  7495 PWs)   bands (ev):

   -40.0823 -40.0610 -19.1085 -19.0788 -19.0486 -18.9967 -18.9372 -18.9140
     7.0182   8.3090   8.4409   8.4815   9.7884  10.1166  10.4532

          k = 0.2500 0.4330 0.0784 (  7505 PWs)   bands (ev):

   -40.0815 -40.0618 -19.1105 -19.1069 -19.0162 -19.0070 -18.9396 -18.9034
     7.0650   8.2469   8.4780   8.5576   9.7724  10.0122  10.4634

          k = 0.2500 0.4330 0.1568 (  7497 PWs)   bands (ev):

   -40.0792 -40.0641 -19.1353 -19.1198 -19.0181 -18.9832 -18.9391 -18.8876
     7.2001   8.1092   8.5876   8.7162   9.7058   9.7688  10.5202

          k = 0.2500 0.4330 0.2353 (  7491 PWs)   bands (ev):

   -40.0757 -40.0676 -19.1497 -19.1359 -19.0142 -18.9843 -18.9159 -18.8823
     7.4068   7.9051   8.7577   8.8927   9.5112   9.5697  10.6795

          k = 0.2500 0.4330-0.3137 (  7504 PWs)   bands (ev):

   -40.0716 -40.0716 -19.1488 -19.1488 -19.0000 -19.0000 -18.8923 -18.8923
     7.6559   7.6559   8.9259   8.9259   9.4295   9.4295  10.9648

          k = 0.2500 0.5292 0.0000 (  7503 PWs)   bands (ev):

   -40.0739 -40.0630 -19.1237 -19.0676 -19.0314 -19.0123 -18.9599 -18.9432
     7.7094   8.2588   8.3106   8.3761   9.7626   9.8909  10.6773

          k = 0.2500 0.5292 0.0784 (  7503 PWs)   bands (ev):

   -40.0735 -40.0634 -19.1267 -19.0865 -19.0469 -18.9869 -18.9642 -18.9266
     7.7376   8.2315   8.3435   8.4648   9.7223   9.7958  10.6814

          k = 0.2500 0.5292 0.1568 (  7492 PWs)   bands (ev):

   -40.0723 -40.0645 -19.1391 -19.1136 -19.0566 -18.9861 -18.9394 -18.9023
     7.8156   8.1880   8.4675   8.6481   9.5463   9.6082  10.7166

          k = 0.2500 0.5292 0.2353 (  7501 PWs)   bands (ev):

   -40.0705 -40.0663 -19.1514 -19.1376 -19.0466 -19.0048 -18.9077 -18.8879
     7.9246   8.1283   8.6719   8.8859   9.2463   9.4053  10.8307

          k = 0.2500 0.5292-0.3137 (  7500 PWs)   bands (ev):

   -40.0684 -40.0684 -19.1517 -19.1517 -19.0268 -19.0268 -18.8894 -18.8894
     8.0376   8.0376   8.9372   8.9372   9.1551   9.1551  11.0604

          k = 0.3333 0.5774 0.0000 (  7497 PWs)   bands (ev):

   -40.0673 -40.0673 -19.1142 -19.0528 -19.0528 -18.9857 -18.9765 -18.9765
     8.1579   8.1579   8.2616   8.3471   9.7594   9.7594  10.7720

          k = 0.3333 0.5774 0.0784 (  7488 PWs)   bands (ev):

   -40.0673 -40.0673 -19.1094 -19.0743 -19.0743 -18.9906 -18.9547 -18.9547
     8.2036   8.2036   8.2806   8.3657   9.6818   9.6818  10.7707

          k = 0.3333 0.5774 0.1568 (  7476 PWs)   bands (ev):

   -40.0672 -40.0672 -19.1075 -19.1075 -19.0956 -19.0047 -18.9209 -18.9209
     8.3309   8.3340   8.3340   8.4086   9.4814   9.4814  10.7876

          k = 0.3333 0.5774 0.2353 (  7485 PWs)   bands (ev):

   -40.0672 -40.0672 -19.1314 -19.1314 -19.0749 -19.0257 -18.8963 -18.8963
     8.3932   8.4430   8.5217   8.5217   9.2314   9.2314  10.8739

          k = 0.3333 0.5774-0.3137 (  7512 PWs)   bands (ev):

   -40.0672 -40.0672 -19.1400 -19.1400 -19.0504 -19.0504 -18.8875 -18.8875
     8.4386   8.4386   8.6523   8.6523   9.0770   9.0770  11.0783

     the Fermi energy is     8.8141 ev

!    total energy              =    -306.87382424 Ry
     total all-electron energy =     -3050.014595 Ry
     estimated scf accuracy    <          5.3E-09 Ry
     smearing contrib. (-TS)   =      -0.00104028 Ry
     internal energy E=F+TS    =    -306.87278395 Ry

     The total energy is F=E-TS. E is the sum of the following terms:
     one-electron contribution =     -74.40865881 Ry
     hartree contribution      =      42.28674677 Ry
     xc contribution           =     -34.52800642 Ry
     ewald contribution        =    -126.46581261 Ry
     one-center paw contrib.   =    -113.75705288 Ry

     convergence has been achieved in  11 iterations

     Writing all to output data dir sc_rhocut.out/scandium.save/

     init_run     :      1.28s CPU      1.30s WALL (       1 calls)
     electrons    :     51.44s CPU     53.32s WALL (       1 calls)

     Called by init_run:
     wfcinit      :      1.02s CPU      1.04s WALL (       1 calls)
     potinit      :      0.07s CPU      0.07s WALL (       1 calls)
     hinit0       :      0.15s CPU      0.15s WALL (       1 calls)

     Called by electrons:
     c_bands      :     46.94s CPU     48.57s WALL (      12 calls)
     sum_band     :      3.93s CPU      4.03s WALL (      12 calls)
     v_of_rho     :      0.02s CPU      0.02s WALL (      12 calls)
     newd         :      0.21s CPU      0.21s WALL (      12 calls)
     PAW_pot      :      0.36s CPU      0.36s WALL (      12 calls)
     mix_rho      :      0.01s CPU      0.01s WALL (      12 calls)

     Called by c_bands:
     init_us_2    :      0.41s CPU      0.45s WALL (    2375 calls)
     init_us_2:cp :      0.40s CPU      0.44s WALL (    2375 calls)
     cegterg      :     45.91s CPU     46.79s WALL (    1150 calls)

     Called by *egterg:
     cdiaghg      :      3.03s CPU      3.09s WALL (   10099 calls)
     h_psi        :     32.92s CPU     33.64s WALL (   10290 calls)
     s_psi        :      2.08s CPU      2.12s WALL (   10290 calls)
     g_psi        :      0.21s CPU      0.21s WALL (    9045 calls)

     Called by h_psi:
     h_psi:calbec :      2.39s CPU      2.45s WALL (   10290 calls)
     vloc_psi     :     28.32s CPU     28.94s WALL (   10290 calls)
     add_vuspsi   :      2.08s CPU      2.13s WALL (   10290 calls)

     General routines
     calbec       :      2.83s CPU      2.90s WALL (   11430 calls)
     fft          :      0.02s CPU      0.02s WALL (      49 calls)
     ffts         :      0.00s CPU      0.00s WALL (      12 calls)
     fftw         :     29.05s CPU     29.69s WALL (  183984 calls)

     Parallel routines

     PWSCF        :     53.25s CPU     55.68s WALL


   This run was terminated on:  12:17:39  26Jul2023            

=------------------------------------------------------------------------------=
   JOB DONE.
=------------------------------------------------------------------------------=
