
     Program PWSCF v.7.2 starts on 26Jul2023 at 17:30: 4 

     This program is part of the open-source Quantum ESPRESSO suite
     for quantum simulation of materials; please cite
         "P. Giannozzi et al., J. Phys.:Condens. Matter 21 395502 (2009);
         "P. Giannozzi et al., J. Phys.:Condens. Matter 29 465901 (2017);
         "P. Giannozzi et al., J. Chem. Phys. 152 154105 (2020);
          URL http://www.quantum-espresso.org", 
     in publications or presentations arising from this work. More details at
     http://www.quantum-espresso.org/quote

     Parallel version (MPI), running on    20 processors

     MPI processes distributed on     1 nodes
     310528 MiB available memory on the printing compute node when the environment starts

     Waiting for input...
     Reading input from standard input

     Current dimensions of program PWSCF are:
     Max number of different atomic species (ntypx) = 10
     Max number of k-points (npk) = 120000
     Max angular momentum in pseudopotentials (lmaxx) =  4
     file Sc.pz-spn-kjpaw_psl.1.0.0.UPF: wavefunction(s)  3S 3P 3D renormalized

     R & G space division:  proc/nbgrp/npool/nimage =      20
     Subspace diagonalization in iterative solution of the eigenvalue problem:
     a serial algorithm will be used


     Parallelization info
     --------------------
     sticks:   dense  smooth     PW     G-vecs:    dense   smooth      PW
     Min          42      42     12                 1626     1626     256
     Max          43      43     13                 1637     1637     263
     Sum         859     859    253                32631    32631    5203

     Using Slab Decomposition



     bravais-lattice index     =            4
     lattice parameter (alat)  =       6.2531  a.u.
     unit-cell volume          =     337.5249 (a.u.)^3
     number of atoms/cell      =            2
     number of atomic types    =            1
     number of electrons       =        22.00
     number of Kohn-Sham states=           15
     kinetic-energy cutoff     =      80.0000  Ry
     charge density cutoff     =     320.0000  Ry
     scf convergence threshold =      1.0E-08
     mixing beta               =       0.7000
     number of iterations used =            8  plain     mixing
     Exchange-correlation= SLA  PZ   NOGX NOGC
                           (   1   1   0   0   0   0   0)

     celldm(1)=   6.253104  celldm(2)=   0.000000  celldm(3)=   1.594000
     celldm(4)=   0.000000  celldm(5)=   0.000000  celldm(6)=   0.000000

     crystal axes: (cart. coord. in units of alat)
               a(1) = (   1.000000   0.000000   0.000000 )  
               a(2) = (  -0.500000   0.866025   0.000000 )  
               a(3) = (   0.000000   0.000000   1.594000 )  

     reciprocal axes: (cart. coord. in units 2 pi/alat)
               b(1) = (  1.000000  0.577350 -0.000000 )  
               b(2) = (  0.000000  1.154701  0.000000 )  
               b(3) = (  0.000000 -0.000000  0.627353 )  


     PseudoPot. # 1 for Sc read from file:
     ../../../Sc.pz-spn-kjpaw_psl.1.0.0.UPF
     MD5 check sum: 1f9095df0bb42a6568b4e9f256ff075f
     Pseudo is Projector augmented-wave + core cor, Zval = 11.0
     Generated using 'atomic' code by A. Dal Corso  v.7.1
     Shape of augmentation charge: PSQ
     Using radial grid of 1173 points,  6 beta functions with: 
                l(1) =   0
                l(2) =   0
                l(3) =   1
                l(4) =   1
                l(5) =   2
                l(6) =   2
     Q(r) pseudized with 0 coefficients 


     atomic species   valence    mass     pseudopotential
        Sc            11.00    44.59600     Sc( 1.00)

     24 Sym. Ops., with inversion, found (12 have fractional translation)



   Cartesian axes

     site n.     atom                  positions (alat units)
         1           Sc  tau(   1) = (   0.0000000   0.0000000   0.0000000  )
         2           Sc  tau(   2) = (   0.5000000   0.2886751   0.7970000  )

     number of k points=    48  Marzari-Vanderbilt smearing, width (Ry)=  0.1000
                       cart. coord. in units 2pi/alat
        k(    1) = (   0.0000000   0.0000000   0.0000000), wk =   0.0041152
        k(    2) = (   0.0000000   0.0000000   0.1045588), wk =   0.0082305
        k(    3) = (   0.0000000   0.0000000   0.2091175), wk =   0.0082305
        k(    4) = (   0.0000000   0.0000000  -0.3136763), wk =   0.0041152
        k(    5) = (   0.0000000   0.1283001   0.0000000), wk =   0.0246914
        k(    6) = (   0.0000000   0.1283001   0.1045588), wk =   0.0493827
        k(    7) = (   0.0000000   0.1283001   0.2091175), wk =   0.0493827
        k(    8) = (   0.0000000   0.1283001  -0.3136763), wk =   0.0246914
        k(    9) = (   0.0000000   0.2566001   0.0000000), wk =   0.0246914
        k(   10) = (   0.0000000   0.2566001   0.1045588), wk =   0.0493827
        k(   11) = (   0.0000000   0.2566001   0.2091175), wk =   0.0493827
        k(   12) = (   0.0000000   0.2566001  -0.3136763), wk =   0.0246914
        k(   13) = (   0.0000000   0.3849002   0.0000000), wk =   0.0246914
        k(   14) = (   0.0000000   0.3849002   0.1045588), wk =   0.0493827
        k(   15) = (   0.0000000   0.3849002   0.2091175), wk =   0.0493827
        k(   16) = (   0.0000000   0.3849002  -0.3136763), wk =   0.0246914
        k(   17) = (   0.0000000   0.5132002   0.0000000), wk =   0.0246914
        k(   18) = (   0.0000000   0.5132002   0.1045588), wk =   0.0493827
        k(   19) = (   0.0000000   0.5132002   0.2091175), wk =   0.0493827
        k(   20) = (   0.0000000   0.5132002  -0.3136763), wk =   0.0246914
        k(   21) = (   0.1111111   0.1924501   0.0000000), wk =   0.0246914
        k(   22) = (   0.1111111   0.1924501   0.1045588), wk =   0.0493827
        k(   23) = (   0.1111111   0.1924501   0.2091175), wk =   0.0493827
        k(   24) = (   0.1111111   0.1924501  -0.3136763), wk =   0.0246914
        k(   25) = (   0.1111111   0.3207501   0.0000000), wk =   0.0493827
        k(   26) = (   0.1111111   0.3207501   0.1045588), wk =   0.0987654
        k(   27) = (   0.1111111   0.3207501   0.2091175), wk =   0.0987654
        k(   28) = (   0.1111111   0.3207501  -0.3136763), wk =   0.0493827
        k(   29) = (   0.1111111   0.4490502   0.0000000), wk =   0.0493827
        k(   30) = (   0.1111111   0.4490502   0.1045588), wk =   0.0987654
        k(   31) = (   0.1111111   0.4490502   0.2091175), wk =   0.0987654
        k(   32) = (   0.1111111   0.4490502  -0.3136763), wk =   0.0493827
        k(   33) = (   0.1111111   0.5773503   0.0000000), wk =   0.0246914
        k(   34) = (   0.1111111   0.5773503   0.1045588), wk =   0.0493827
        k(   35) = (   0.1111111   0.5773503   0.2091175), wk =   0.0493827
        k(   36) = (   0.1111111   0.5773503  -0.3136763), wk =   0.0246914
        k(   37) = (   0.2222222   0.3849002   0.0000000), wk =   0.0246914
        k(   38) = (   0.2222222   0.3849002   0.1045588), wk =   0.0493827
        k(   39) = (   0.2222222   0.3849002   0.2091175), wk =   0.0493827
        k(   40) = (   0.2222222   0.3849002  -0.3136763), wk =   0.0246914
        k(   41) = (   0.2222222   0.5132002   0.0000000), wk =   0.0493827
        k(   42) = (   0.2222222   0.5132002   0.1045588), wk =   0.0987654
        k(   43) = (   0.2222222   0.5132002   0.2091175), wk =   0.0987654
        k(   44) = (   0.2222222   0.5132002  -0.3136763), wk =   0.0493827
        k(   45) = (   0.3333333   0.5773503   0.0000000), wk =   0.0082305
        k(   46) = (   0.3333333   0.5773503   0.1045588), wk =   0.0164609
        k(   47) = (   0.3333333   0.5773503   0.2091175), wk =   0.0164609
        k(   48) = (   0.3333333   0.5773503  -0.3136763), wk =   0.0082305

     Dense  grid:    32631 G-vectors     FFT dimensions: (  36,  36,  60)

     Estimated max dynamical RAM per process >       9.47 MB

     Estimated total dynamical RAM >     189.35 MB

     Check: negative core charge=   -0.000015

     Initial potential from superposition of free atoms

     starting charge      21.9956, renormalised to      22.0000
     Starting wfcs are   20 randomized atomic wfcs
     Checking if some PAW data can be deallocated... 

     total cpu time spent up to now is        0.8 secs

     Self-consistent Calculation

     iteration #  1     ecut=    80.00 Ry     beta= 0.70
     Davidson diagonalization with overlap
     ethr =  1.00E-02,  avg # of iterations =  2.4

     Threshold (ethr) on eigenvalues was too large:
     Diagonalizing with lowered threshold

     Davidson diagonalization with overlap
     c_bands:  3 eigenvalues not converged
     c_bands:  1 eigenvalues not converged
     c_bands:  1 eigenvalues not converged
     c_bands:  1 eigenvalues not converged
     c_bands:  1 eigenvalues not converged
     c_bands:  3 eigenvalues not converged
     c_bands:  1 eigenvalues not converged
     c_bands:  2 eigenvalues not converged
     c_bands:  2 eigenvalues not converged
     c_bands:  1 eigenvalues not converged
     c_bands:  3 eigenvalues not converged
     c_bands:  1 eigenvalues not converged
     c_bands:  4 eigenvalues not converged
     c_bands:  2 eigenvalues not converged
     ethr =  2.42E-05,  avg # of iterations = 17.6

     total cpu time spent up to now is        4.8 secs

     total energy              =    -306.89099713 Ry
     estimated scf accuracy    <       0.01548929 Ry

     iteration #  2     ecut=    80.00 Ry     beta= 0.70
     Davidson diagonalization with overlap
     ethr =  7.04E-05,  avg # of iterations =  6.0

     total cpu time spent up to now is        5.9 secs

     total energy              =    -306.89505484 Ry
     estimated scf accuracy    <       0.00107473 Ry

     iteration #  3     ecut=    80.00 Ry     beta= 0.70
     Davidson diagonalization with overlap
     c_bands:  2 eigenvalues not converged
     ethr =  4.89E-06,  avg # of iterations =  9.1

     total cpu time spent up to now is        7.4 secs

     total energy              =    -306.89602172 Ry
     estimated scf accuracy    <       0.00030521 Ry

     iteration #  4     ecut=    80.00 Ry     beta= 0.70
     Davidson diagonalization with overlap
     c_bands:  3 eigenvalues not converged
     c_bands:  2 eigenvalues not converged
     ethr =  1.39E-06,  avg # of iterations =  8.9

     total cpu time spent up to now is        8.9 secs

     total energy              =    -306.89619631 Ry
     estimated scf accuracy    <       0.00009455 Ry

     iteration #  5     ecut=    80.00 Ry     beta= 0.70
     Davidson diagonalization with overlap
     c_bands:  2 eigenvalues not converged
     ethr =  4.30E-07,  avg # of iterations =  9.2

     total cpu time spent up to now is       10.3 secs

     total energy              =    -306.89624335 Ry
     estimated scf accuracy    <       0.00000646 Ry

     iteration #  6     ecut=    80.00 Ry     beta= 0.70
     Davidson diagonalization with overlap
     c_bands:  3 eigenvalues not converged
     c_bands:  2 eigenvalues not converged
     c_bands:  2 eigenvalues not converged
     c_bands:  1 eigenvalues not converged
     c_bands:  1 eigenvalues not converged
     c_bands:  2 eigenvalues not converged
     c_bands:  1 eigenvalues not converged
     c_bands:  1 eigenvalues not converged
     c_bands:  2 eigenvalues not converged
     c_bands:  2 eigenvalues not converged
     c_bands:  1 eigenvalues not converged
     c_bands:  1 eigenvalues not converged
     c_bands:  4 eigenvalues not converged
     c_bands:  3 eigenvalues not converged
     ethr =  2.93E-08,  avg # of iterations = 16.2

     total cpu time spent up to now is       12.4 secs

     total energy              =    -306.89625131 Ry
     estimated scf accuracy    <       0.00000598 Ry

     iteration #  7     ecut=    80.00 Ry     beta= 0.70
     Davidson diagonalization with overlap
     c_bands:  3 eigenvalues not converged
     ethr =  2.72E-08,  avg # of iterations =  7.5

     total cpu time spent up to now is       13.6 secs

     total energy              =    -306.89625500 Ry
     estimated scf accuracy    <       0.00000007 Ry

     iteration #  8     ecut=    80.00 Ry     beta= 0.70
     Davidson diagonalization with overlap
     c_bands:  3 eigenvalues not converged
     c_bands:  3 eigenvalues not converged
     c_bands:  2 eigenvalues not converged
     c_bands:  5 eigenvalues not converged
     c_bands:  4 eigenvalues not converged
     c_bands:  3 eigenvalues not converged
     c_bands:  4 eigenvalues not converged
     c_bands:  1 eigenvalues not converged
     c_bands:  2 eigenvalues not converged
     c_bands:  1 eigenvalues not converged
     c_bands:  3 eigenvalues not converged
     c_bands:  2 eigenvalues not converged
     c_bands:  3 eigenvalues not converged
     c_bands:  2 eigenvalues not converged
     c_bands:  4 eigenvalues not converged
     c_bands:  1 eigenvalues not converged
     c_bands:  3 eigenvalues not converged
     c_bands:  2 eigenvalues not converged
     c_bands:  4 eigenvalues not converged
     c_bands:  2 eigenvalues not converged
     c_bands:  2 eigenvalues not converged
     c_bands:  3 eigenvalues not converged
     c_bands:  2 eigenvalues not converged
     c_bands:  5 eigenvalues not converged
     c_bands:  3 eigenvalues not converged
     c_bands:  1 eigenvalues not converged
     c_bands:  1 eigenvalues not converged
     c_bands:  3 eigenvalues not converged
     c_bands:  4 eigenvalues not converged
     c_bands:  2 eigenvalues not converged
     c_bands:  3 eigenvalues not converged
     c_bands:  4 eigenvalues not converged
     c_bands:  1 eigenvalues not converged
     c_bands:  1 eigenvalues not converged
     c_bands:  5 eigenvalues not converged
     ethr =  3.04E-10,  avg # of iterations = 19.6

     total cpu time spent up to now is       16.4 secs

     total energy              =    -306.89626039 Ry
     estimated scf accuracy    <       0.00000050 Ry

     iteration #  9     ecut=    80.00 Ry     beta= 0.70
     Davidson diagonalization with overlap
     c_bands:  3 eigenvalues not converged
     c_bands:  2 eigenvalues not converged
     c_bands:  1 eigenvalues not converged
     c_bands:  2 eigenvalues not converged
     c_bands:  2 eigenvalues not converged
     c_bands:  1 eigenvalues not converged
     c_bands:  1 eigenvalues not converged
     c_bands:  2 eigenvalues not converged
     c_bands:  1 eigenvalues not converged
     ethr =  3.04E-10,  avg # of iterations =  7.6

     total cpu time spent up to now is       17.5 secs

     total energy              =    -306.89626225 Ry
     estimated scf accuracy    <       0.00000027 Ry

     iteration # 10     ecut=    80.00 Ry     beta= 0.70
     Davidson diagonalization with overlap
     c_bands:  2 eigenvalues not converged
     c_bands:  1 eigenvalues not converged
     ethr =  3.04E-10,  avg # of iterations =  3.2

     total cpu time spent up to now is       18.4 secs

     total energy              =    -306.89626234 Ry
     estimated scf accuracy    <       0.00000023 Ry

     iteration # 11     ecut=    80.00 Ry     beta= 0.70
     Davidson diagonalization with overlap
     c_bands:  1 eigenvalues not converged
     ethr =  3.04E-10,  avg # of iterations =  4.0

     total cpu time spent up to now is       19.3 secs

     total energy              =    -306.89626228 Ry
     estimated scf accuracy    <       0.00000013 Ry

     iteration # 12     ecut=    80.00 Ry     beta= 0.70
     Davidson diagonalization with overlap
     c_bands:  1 eigenvalues not converged
     ethr =  3.04E-10,  avg # of iterations =  7.1

     total cpu time spent up to now is       20.7 secs

     End of self-consistent calculation

          k = 0.0000 0.0000 0.0000 (  4055 PWs)   bands (ev):

   -40.0536 -39.9888 -19.1505 -18.8086 -18.8086 -18.7498 -18.7498 -18.7387
     3.7555   7.1603   9.3022  10.4011  10.4011  10.5085  10.8086

          k = 0.0000 0.0000 0.1046 (  4061 PWs)   bands (ev):

   -40.0493 -39.9932 -19.1238 -18.8047 -18.8047 -18.7672 -18.7538 -18.7538
     3.9349   6.8828   9.2717  10.3342  10.3342  10.3927  10.7127

          k = 0.0000 0.0000 0.2091 (  4078 PWs)   bands (ev):

   -40.0375 -40.0051 -19.0502 -18.8443 -18.7940 -18.7940 -18.7646 -18.7646
     4.4515   6.1372   9.3826  10.0859  10.2791  10.2791  10.5117

          k = 0.0000 0.0000-0.3137 (  4060 PWs)   bands (ev):

   -40.0213 -40.0213 -18.9481 -18.9481 -18.7793 -18.7793 -18.7793 -18.7793
     5.2346   5.2346   9.6994   9.6994  10.3412  10.3412  10.3412

          k = 0.0000 0.1283 0.0000 (  4073 PWs)   bands (ev):

   -40.0478 -39.9865 -19.1349 -18.8407 -18.8192 -18.7832 -18.7545 -18.7453
     4.0230   7.3877   9.0979   9.9980  10.5953  10.6249  10.8094

          k = 0.0000 0.1283 0.1046 (  4060 PWs)   bands (ev):

   -40.0437 -39.9906 -19.1110 -18.8355 -18.8149 -18.8017 -18.7588 -18.7574
     4.1977   7.1079   9.0789  10.0102  10.4722  10.4944  10.6080

          k = 0.0000 0.1283 0.2091 (  4065 PWs)   bands (ev):

   -40.0325 -40.0019 -19.0455 -18.8648 -18.8202 -18.8031 -18.7781 -18.7707
     4.7015   6.3595   9.2288  10.0321  10.0867  10.4249  10.4452

          k = 0.0000 0.1283-0.3137 (  4070 PWs)   bands (ev):

   -40.0172 -40.0172 -18.9552 -18.9552 -18.7999 -18.7999 -18.7869 -18.7869
     5.4680   5.4680   9.5901   9.5901  10.2324  10.2324  10.4881

          k = 0.0000 0.2566 0.0000 (  4069 PWs)   bands (ev):

   -40.0324 -39.9810 -19.0919 -18.9229 -18.8654 -18.8449 -18.7671 -18.7655
     4.7786   7.9248   8.6968   9.4189  10.2877  10.6004  10.6953

          k = 0.0000 0.2566 0.1046 (  4071 PWs)   bands (ev):

   -40.0290 -39.9845 -19.0794 -18.9124 -18.8821 -18.8397 -18.7726 -18.7724
     4.9367   7.6458   8.7206   9.4672  10.2444  10.4510  10.6726

          k = 0.0000 0.2566 0.2091 (  4073 PWs)   bands (ev):

   -40.0196 -39.9939 -19.0436 -18.9345 -18.8741 -18.8256 -18.7958 -18.7867
     5.3934   6.9188   8.9468   9.5596   9.9653  10.2668  10.7025

          k = 0.0000 0.2566-0.3137 (  4064 PWs)   bands (ev):

   -40.0068 -40.0068 -18.9912 -18.9912 -18.8332 -18.8332 -18.8062 -18.8062
     6.0922   6.0922   9.3232   9.3232  10.0100  10.0100  10.8426

          k = 0.0000 0.3849 0.0000 (  4090 PWs)   bands (ev):

   -40.0134 -39.9762 -19.0334 -19.0175 -18.9550 -18.8729 -18.7980 -18.7826
     5.8699   8.2153   8.3544   8.9378  10.2523  10.2561  10.4002

          k = 0.0000 0.3849 0.1046 (  4081 PWs)   bands (ev):

   -40.0110 -39.9787 -19.0645 -18.9857 -18.9556 -18.8669 -18.7980 -18.7887
     5.9888   7.9686   8.4764   9.0077  10.0535  10.3357  10.4882

          k = 0.0000 0.3849 0.2091 (  4079 PWs)   bands (ev):

   -40.0042 -39.9856 -19.0755 -19.0209 -18.8979 -18.8505 -18.8094 -18.8053
     6.3305   7.4433   8.7404   9.1180   9.8867  10.1792  10.7416

          k = 0.0000 0.3849-0.3137 (  4070 PWs)   bands (ev):

   -39.9949 -39.9949 -19.0583 -19.0583 -18.8436 -18.8436 -18.8280 -18.8280
     6.8463   6.8463   9.0346   9.0346   9.9294   9.9294  11.1241

          k = 0.0000 0.5132 0.0000 (  4082 PWs)   bands (ev):

   -39.9989 -39.9752 -19.0796 -19.0116 -18.9817 -18.8906 -18.8327 -18.7931
     6.9714   7.9515   8.1706   8.6195  10.0485  10.2304  10.5205

          k = 0.0000 0.5132 0.1046 (  4078 PWs)   bands (ev):

   -39.9973 -39.9768 -19.0995 -19.0341 -18.9460 -18.8842 -18.8254 -18.7997
     6.9979   7.8359   8.3409   8.6594  10.0938  10.3442  10.4132

          k = 0.0000 0.5132 0.2091 (  4076 PWs)   bands (ev):

   -39.9930 -39.9811 -19.1175 -19.0763 -18.8880 -18.8664 -18.8221 -18.8177
     7.1041   7.5903   8.6515   8.8272  10.0935  10.1897  10.6755

          k = 0.0000 0.5132-0.3137 (  4086 PWs)   bands (ev):

   -39.9871 -39.9871 -19.1092 -19.1092 -18.8425 -18.8425 -18.8421 -18.8421
     7.3136   7.3136   8.8928   8.8928  10.0465  10.0465  11.1904

          k = 0.1111 0.1925 0.0000 (  4059 PWs)   bands (ev):

   -40.0372 -39.9826 -19.1055 -18.8889 -18.8640 -18.8171 -18.7693 -18.7588
     4.5360   7.7834   8.8128   9.5598  10.3871  10.6027  10.8926

          k = 0.1111 0.1925 0.1046 (  4065 PWs)   bands (ev):

   -40.0335 -39.9862 -19.0885 -18.8800 -18.8705 -18.8260 -18.7741 -18.7656
     4.7003   7.5014   8.8185   9.6028  10.3754  10.4225  10.6956

          k = 0.1111 0.1925 0.2091 (  4058 PWs)   bands (ev):

   -40.0236 -39.9963 -19.0414 -18.9109 -18.8559 -18.8257 -18.7870 -18.7858
     5.1749   6.7573   9.0245   9.6969   9.9973  10.2956  10.6516

          k = 0.1111 0.1925-0.3137 (  4064 PWs)   bands (ev):

   -40.0099 -40.0099 -18.9762 -18.9762 -18.8269 -18.8269 -18.8008 -18.8008
     5.9008   5.9008   9.4120   9.4120  10.0463  10.0463  10.7410

          k = 0.1111 0.3208 0.0000 (  4073 PWs)   bands (ev):

   -40.0199 -39.9775 -19.0543 -18.9699 -18.9348 -18.8584 -18.7913 -18.7856
     5.4713   8.2728   8.4899   9.0337  10.1877  10.2252  10.6007

          k = 0.1111 0.3208 0.1046 (  4072 PWs)   bands (ev):

   -40.0171 -39.9804 -19.0587 -18.9590 -18.9327 -18.8618 -18.7987 -18.7837
     5.6101   7.9956   8.5709   9.0959  10.0782  10.2946  10.5540

          k = 0.1111 0.3208 0.2091 (  4075 PWs)   bands (ev):

   -40.0093 -39.9881 -19.0533 -18.9875 -18.8907 -18.8563 -18.8138 -18.7935
     6.0105   7.3434   8.8286   9.2294   9.8615  10.1205  10.7120

          k = 0.1111 0.3208-0.3137 (  4078 PWs)   bands (ev):

   -39.9988 -39.9988 -19.0270 -19.0270 -18.8541 -18.8541 -18.8166 -18.8166
     6.6213   6.6213   9.1530   9.1530   9.8454   9.8454  11.0114

          k = 0.1111 0.4491 0.0000 (  4071 PWs)   bands (ev):

   -40.0026 -39.9751 -19.0476 -18.9961 -18.9889 -18.8961 -18.8223 -18.8091
     6.6121   8.2447   8.2729   8.6864  10.0118  10.2736  10.4118

          k = 0.1111 0.4491 0.1046 (  4088 PWs)   bands (ev):

   -40.0008 -39.9770 -19.0724 -19.0142 -18.9513 -18.8913 -18.8251 -18.8055
     6.6951   8.0452   8.4258   8.7827   9.9449  10.2122  10.4751

          k = 0.1111 0.4491 0.2091 (  4076 PWs)   bands (ev):

   -39.9958 -39.9820 -19.0911 -19.0516 -18.9058 -18.8684 -18.8386 -18.8036
     6.9335   7.6967   8.6952   8.9598   9.8098   9.9811  10.7259

          k = 0.1111 0.4491-0.3137 (  4078 PWs)   bands (ev):

   -39.9889 -39.9889 -19.0828 -19.0828 -18.8750 -18.8750 -18.8216 -18.8216
     7.2912   7.2912   8.9689   8.9689   9.7678   9.7678  11.1365

          k = 0.1111 0.5774 0.0000 (  4077 PWs)   bands (ev):

   -39.9943 -39.9757 -19.0783 -19.0100 -18.9634 -18.9107 -18.8465 -18.8161
     7.4009   7.9264   8.1994   8.5135   9.9846  10.0947  10.6075

          k = 0.1111 0.5774 0.1046 (  4077 PWs)   bands (ev):

   -39.9931 -39.9769 -19.0949 -19.0327 -18.9432 -18.8952 -18.8434 -18.8150
     7.3799   7.8876   8.3754   8.5515   9.9872  10.0648  10.6173

          k = 0.1111 0.5774 0.2091 (  4077 PWs)   bands (ev):

   -39.9896 -39.9803 -19.1125 -19.0751 -18.9132 -18.8570 -18.8560 -18.8097
     7.4053   7.7349   8.7350   8.7491   9.8662   9.9135  10.8211

          k = 0.1111 0.5774-0.3137 (  4086 PWs)   bands (ev):

   -39.9850 -39.9850 -19.1063 -19.1063 -18.8836 -18.8836 -18.8216 -18.8216
     7.5375   7.5375   8.9429   8.9429   9.7462   9.7462  11.2377

          k = 0.2222 0.3849 0.0000 (  4095 PWs)   bands (ev):

   -40.0041 -39.9751 -19.0093 -19.0015 -18.9922 -18.8929 -18.8345 -18.8185
     6.4868   8.3566   8.5241   8.6155   9.9136  10.3235  10.3258

          k = 0.2222 0.3849 0.1046 (  4094 PWs)   bands (ev):

   -40.0021 -39.9771 -19.0439 -19.0155 -18.9375 -18.9058 -18.8395 -18.8065
     6.5912   8.2088   8.6115   8.6820   9.8777  10.1725  10.3773

          k = 0.2222 0.3849 0.2091 (  4087 PWs)   bands (ev):

   -39.9968 -39.9824 -19.0663 -19.0375 -18.9103 -18.8921 -18.8426 -18.7995
     6.8890   7.8200   8.8283   8.8615   9.7353   9.8461  10.5945

          k = 0.2222 0.3849-0.3137 (  4072 PWs)   bands (ev):

   -39.9896 -39.9896 -19.0615 -19.0615 -18.8965 -18.8965 -18.8160 -18.8160
     7.3305   7.3305   9.0002   9.0002   9.6151   9.6151  10.9976

          k = 0.2222 0.5132 0.0000 (  4091 PWs)   bands (ev):

   -39.9910 -39.9764 -19.0475 -18.9916 -18.9494 -18.9394 -18.8640 -18.8574
     7.5170   8.2847   8.3174   8.4501   9.8250   9.9962  10.6604

          k = 0.2222 0.5132 0.1046 (  4085 PWs)   bands (ev):

   -39.9900 -39.9773 -19.0583 -19.0193 -18.9605 -18.9045 -18.8732 -18.8330
     7.5674   8.2032   8.4130   8.5892   9.7607   9.8453  10.6790

          k = 0.2222 0.5132 0.2091 (  4103 PWs)   bands (ev):

   -39.9873 -39.9800 -19.0779 -19.0548 -18.9564 -18.9053 -18.8433 -18.8101
     7.7065   8.0740   8.6565   8.8689   9.4797   9.5784  10.7998

          k = 0.2222 0.5132-0.3137 (  4090 PWs)   bands (ev):

   -39.9836 -39.9836 -19.0785 -19.0785 -18.9324 -18.9324 -18.8126 -18.8126
     7.8957   7.8957   8.9857   8.9857   9.2984   9.2984  11.1068

          k = 0.3333 0.5774 0.0000 (  4077 PWs)   bands (ev):

   -39.9816 -39.9816 -19.0340 -18.9721 -18.9721 -18.9045 -18.9012 -18.9012
     8.1806   8.1806   8.2796   8.3761   9.7952   9.7952  10.8175

          k = 0.3333 0.5774 0.1046 (  4092 PWs)   bands (ev):

   -39.9816 -39.9816 -19.0254 -19.0066 -19.0066 -18.9132 -18.8662 -18.8662
     8.2618   8.2618   8.3129   8.4067   9.6598   9.6598  10.8184

          k = 0.3333 0.5774 0.2091 (  4083 PWs)   bands (ev):

   -39.9816 -39.9816 -19.0468 -19.0468 -19.0019 -18.9372 -18.8251 -18.8251
     8.3922   8.4600   8.4816   8.4816   9.3450   9.3450  10.8827

          k = 0.3333 0.5774-0.3137 (  4128 PWs)   bands (ev):

   -39.9816 -39.9816 -19.0621 -19.0621 -18.9697 -18.9697 -18.8094 -18.8094
     8.4604   8.4604   8.6806   8.6806   9.1036   9.1036  11.1308

     the Fermi energy is     8.9253 ev

!    total energy              =    -306.89626233 Ry
     total all-electron energy =     -3050.037033 Ry
     estimated scf accuracy    <          4.1E-10 Ry
     smearing contrib. (-TS)   =      -0.06147996 Ry
     internal energy E=F+TS    =    -306.83478237 Ry

     The total energy is F=E-TS. E is the sum of the following terms:
     one-electron contribution =     -74.46106688 Ry
     hartree contribution      =      42.39327465 Ry
     xc contribution           =     -34.54490110 Ry
     ewald contribution        =    -126.46581261 Ry
     one-center paw contrib.   =    -113.75627642 Ry

     convergence has been achieved in  12 iterations

     Writing all to output data dir sc_smearing.out/scandium.save/

     init_run     :      0.48s CPU      0.52s WALL (       1 calls)
     electrons    :     17.47s CPU     19.93s WALL (       1 calls)

     Called by init_run:
     wfcinit      :      0.30s CPU      0.33s WALL (       1 calls)
     potinit      :      0.05s CPU      0.06s WALL (       1 calls)
     hinit0       :      0.10s CPU      0.10s WALL (       1 calls)

     Called by electrons:
     c_bands      :     15.59s CPU     17.92s WALL (      13 calls)
     sum_band     :      1.33s CPU      1.37s WALL (      13 calls)
     v_of_rho     :      0.01s CPU      0.01s WALL (      13 calls)
     newd         :      0.13s CPU      0.14s WALL (      13 calls)
     PAW_pot      :      0.41s CPU      0.41s WALL (      13 calls)
     mix_rho      :      0.01s CPU      0.01s WALL (      13 calls)

     Called by c_bands:
     init_us_2    :      0.15s CPU      0.17s WALL (    1296 calls)
     init_us_2:cp :      0.15s CPU      0.16s WALL (    1296 calls)
     cegterg      :     15.25s CPU     15.72s WALL (     625 calls)

     Called by *egterg:
     cdiaghg      :      1.81s CPU      1.87s WALL (    6263 calls)
     h_psi        :     10.01s CPU     10.37s WALL (    6360 calls)
     s_psi        :      0.66s CPU      0.68s WALL (    6360 calls)
     g_psi        :      0.07s CPU      0.07s WALL (    5687 calls)

     Called by h_psi:
     h_psi:calbec :      0.84s CPU      0.87s WALL (    6360 calls)
     vloc_psi     :      8.45s CPU      8.75s WALL (    6360 calls)
     add_vuspsi   :      0.66s CPU      0.68s WALL (    6360 calls)

     General routines
     calbec       :      0.99s CPU      1.03s WALL (    6984 calls)
     fft          :      0.01s CPU      0.01s WALL (      53 calls)
     ffts         :      0.00s CPU      0.00s WALL (      13 calls)
     fftw         :      8.65s CPU      8.97s WALL (  102886 calls)

     Parallel routines

     PWSCF        :     18.27s CPU     21.74s WALL


   This run was terminated on:  17:30:26  26Jul2023            

=------------------------------------------------------------------------------=
   JOB DONE.
=------------------------------------------------------------------------------=
