
     Program PWSCF v.7.2 starts on  7Nov2023 at 10:46:37 

     This program is part of the open-source Quantum ESPRESSO suite
     for quantum simulation of materials; please cite
         "P. Giannozzi et al., J. Phys.:Condens. Matter 21 395502 (2009);
         "P. Giannozzi et al., J. Phys.:Condens. Matter 29 465901 (2017);
         "P. Giannozzi et al., J. Chem. Phys. 152 154105 (2020);
          URL http://www.quantum-espresso.org", 
     in publications or presentations arising from this work. More details at
     http://www.quantum-espresso.org/quote

     Parallel version (MPI), running on    40 processors

     MPI processes distributed on     6 nodes
     297110 MiB available memory on the printing compute node when the environment starts

     Waiting for input...
     Reading input from standard input

     Current dimensions of program PWSCF are:
     Max number of different atomic species (ntypx) = 10
     Max number of k-points (npk) = 120000
     Max angular momentum in pseudopotentials (lmaxx) =  4
     file Sc.pz-spn-kjpaw_psl.1.0.0.UPF: wavefunction(s)  3S 3P 3D renormalized

     K-points division:     npool     =       2
     R & G space division:  proc/nbgrp/npool/nimage =      20
     Subspace diagonalization in iterative solution of the eigenvalue problem:
     a serial algorithm will be used


     Parallelization info
     --------------------
     sticks:   dense  smooth     PW     G-vecs:    dense   smooth      PW
     Min          42      42     12                 1626     1626     256
     Max          43      43     13                 1637     1637     263
     Sum         859     859    253                32631    32631    5203

     Using Slab Decomposition



     bravais-lattice index     =            4
     lattice parameter (alat)  =       6.2531  a.u.
     unit-cell volume          =     337.5249 (a.u.)^3
     number of atoms/cell      =            2
     number of atomic types    =            1
     number of electrons       =        22.00
     number of Kohn-Sham states=           15
     kinetic-energy cutoff     =      80.0000  Ry
     charge density cutoff     =     320.0000  Ry
     scf convergence threshold =      1.0E-08
     mixing beta               =       0.7000
     number of iterations used =            8  plain     mixing
     Exchange-correlation= SLA  PZ   NOGX NOGC
                           (   1   1   0   0   0   0   0)

     celldm(1)=   6.253104  celldm(2)=   0.000000  celldm(3)=   1.594000
     celldm(4)=   0.000000  celldm(5)=   0.000000  celldm(6)=   0.000000

     crystal axes: (cart. coord. in units of alat)
               a(1) = (   1.000000   0.000000   0.000000 )  
               a(2) = (  -0.500000   0.866025   0.000000 )  
               a(3) = (   0.000000   0.000000   1.594000 )  

     reciprocal axes: (cart. coord. in units 2 pi/alat)
               b(1) = (  1.000000  0.577350 -0.000000 )  
               b(2) = (  0.000000  1.154701  0.000000 )  
               b(3) = (  0.000000 -0.000000  0.627353 )  


     PseudoPot. # 1 for Sc read from file:
     ../../../Sc.pz-spn-kjpaw_psl.1.0.0.UPF
     MD5 check sum: 1f9095df0bb42a6568b4e9f256ff075f
     Pseudo is Projector augmented-wave + core cor, Zval = 11.0
     Generated using 'atomic' code by A. Dal Corso  v.7.1
     Shape of augmentation charge: PSQ
     Using radial grid of 1173 points,  6 beta functions with: 
                l(1) =   0
                l(2) =   0
                l(3) =   1
                l(4) =   1
                l(5) =   2
                l(6) =   2
     Q(r) pseudized with 0 coefficients 


     atomic species   valence    mass     pseudopotential
        Sc            11.00    44.59600     Sc( 1.00)

     24 Sym. Ops., with inversion, found (12 have fractional translation)



   Cartesian axes

     site n.     atom                  positions (alat units)
         1           Sc  tau(   1) = (   0.0000000   0.0000000   0.0000000  )
         2           Sc  tau(   2) = (   0.5000000   0.2886751   0.7970000  )

     number of k points=   162  Marzari-Vanderbilt smearing, width (Ry)=  0.0010

     Number of k-points >= 100: set verbosity='high' to print them.

     Dense  grid:    32631 G-vectors     FFT dimensions: (  36,  36,  60)

     Estimated max dynamical RAM per process >       8.66 MB

     Estimated total dynamical RAM >     338.56 MB

     Check: negative core charge=   -0.000015

     Initial potential from superposition of free atoms

     starting charge      21.9956, renormalised to      22.0000
     Starting wfcs are   20 randomized atomic wfcs
     Checking if some PAW data can be deallocated... 

     total cpu time spent up to now is        1.0 secs

     Self-consistent Calculation

     iteration #  1     ecut=    80.00 Ry     beta= 0.70
     Davidson diagonalization with overlap
     ethr =  1.00E-02,  avg # of iterations =  2.1

     Threshold (ethr) on eigenvalues was too large:
     Diagonalizing with lowered threshold

     Davidson diagonalization with overlap
     c_bands:  2 eigenvalues not converged
     c_bands:  1 eigenvalues not converged
     c_bands:  1 eigenvalues not converged
     c_bands:  1 eigenvalues not converged
     c_bands:  2 eigenvalues not converged
     c_bands:  2 eigenvalues not converged
     c_bands:  1 eigenvalues not converged
     c_bands:  3 eigenvalues not converged
     c_bands:  4 eigenvalues not converged
     c_bands:  5 eigenvalues not converged
     c_bands:  1 eigenvalues not converged
     c_bands:  1 eigenvalues not converged
     c_bands:  2 eigenvalues not converged
     c_bands:  4 eigenvalues not converged
     c_bands:  5 eigenvalues not converged
     c_bands:  4 eigenvalues not converged
     c_bands:  1 eigenvalues not converged
     c_bands:  2 eigenvalues not converged
     c_bands:  1 eigenvalues not converged
     c_bands:  1 eigenvalues not converged
     ethr =  1.94E-05,  avg # of iterations = 17.1

     total cpu time spent up to now is        9.2 secs

     total energy              =    -306.86638721 Ry
     estimated scf accuracy    <       0.02031909 Ry

     iteration #  2     ecut=    80.00 Ry     beta= 0.70
     Davidson diagonalization with overlap
     ethr =  9.24E-05,  avg # of iterations =  3.9

     total cpu time spent up to now is       11.0 secs

     total energy              =    -306.87141478 Ry
     estimated scf accuracy    <       0.00134672 Ry

     iteration #  3     ecut=    80.00 Ry     beta= 0.70
     Davidson diagonalization with overlap
     c_bands:  1 eigenvalues not converged
     c_bands:  2 eigenvalues not converged
     c_bands:  1 eigenvalues not converged
     ethr =  6.12E-06,  avg # of iterations =  8.6

     total cpu time spent up to now is       14.1 secs

     total energy              =    -306.87247304 Ry
     estimated scf accuracy    <       0.00041120 Ry

     iteration #  4     ecut=    80.00 Ry     beta= 0.70
     Davidson diagonalization with overlap
     c_bands:  1 eigenvalues not converged
     c_bands:  1 eigenvalues not converged
     c_bands:  1 eigenvalues not converged
     ethr =  1.87E-06,  avg # of iterations =  6.2

     total cpu time spent up to now is       16.3 secs

     total energy              =    -306.87267569 Ry
     estimated scf accuracy    <       0.00022154 Ry

     iteration #  5     ecut=    80.00 Ry     beta= 0.70
     Davidson diagonalization with overlap
     c_bands:  1 eigenvalues not converged
     ethr =  1.01E-06,  avg # of iterations =  5.4

     total cpu time spent up to now is       18.5 secs

     total energy              =    -306.87277121 Ry
     estimated scf accuracy    <       0.00001470 Ry

     iteration #  6     ecut=    80.00 Ry     beta= 0.70
     Davidson diagonalization with overlap
     ethr =  6.68E-08,  avg # of iterations = 10.1

     total cpu time spent up to now is       21.5 secs

     total energy              =    -306.87278596 Ry
     estimated scf accuracy    <       0.00002424 Ry

     iteration #  7     ecut=    80.00 Ry     beta= 0.70
     Davidson diagonalization with overlap
     ethr =  6.68E-08,  avg # of iterations =  1.6

     total cpu time spent up to now is       22.7 secs

     total energy              =    -306.87278146 Ry
     estimated scf accuracy    <       0.00000813 Ry

     iteration #  8     ecut=    80.00 Ry     beta= 0.70
     Davidson diagonalization with overlap
     ethr =  3.70E-08,  avg # of iterations =  6.0

     total cpu time spent up to now is       24.9 secs

     total energy              =    -306.87278707 Ry
     estimated scf accuracy    <       0.00000182 Ry

     iteration #  9     ecut=    80.00 Ry     beta= 0.70
     Davidson diagonalization with overlap
     ethr =  8.28E-09,  avg # of iterations =  4.3

     total cpu time spent up to now is       26.7 secs

     total energy              =    -306.87278759 Ry
     estimated scf accuracy    <       0.00000098 Ry

     iteration # 10     ecut=    80.00 Ry     beta= 0.70
     Davidson diagonalization with overlap
     ethr =  4.47E-09,  avg # of iterations =  2.4

     total cpu time spent up to now is       28.1 secs

     total energy              =    -306.87278762 Ry
     estimated scf accuracy    <       0.00000094 Ry

     iteration # 11     ecut=    80.00 Ry     beta= 0.70
     Davidson diagonalization with overlap
     ethr =  4.25E-09,  avg # of iterations =  1.4

     total cpu time spent up to now is       29.4 secs

     total energy              =    -306.87278737 Ry
     estimated scf accuracy    <       0.00000077 Ry

     iteration # 12     ecut=    80.00 Ry     beta= 0.70
     Davidson diagonalization with overlap
     ethr =  3.52E-09,  avg # of iterations =  2.1

     total cpu time spent up to now is       30.7 secs

     total energy              =    -306.87278727 Ry
     estimated scf accuracy    <       0.00000028 Ry

     iteration # 13     ecut=    80.00 Ry     beta= 0.70
     Davidson diagonalization with overlap
     ethr =  1.29E-09,  avg # of iterations =  7.3

     total cpu time spent up to now is       33.0 secs

     total energy              =    -306.87278753 Ry
     estimated scf accuracy    <       0.00000004 Ry

     iteration # 14     ecut=    80.00 Ry     beta= 0.70
     Davidson diagonalization with overlap
     ethr =  1.86E-10,  avg # of iterations = 10.6

     total cpu time spent up to now is       36.3 secs

     total energy              =    -306.87278754 Ry
     estimated scf accuracy    <       0.00000028 Ry

     iteration # 15     ecut=    80.00 Ry     beta= 0.70
     Davidson diagonalization with overlap
     ethr =  1.86E-10,  avg # of iterations =  5.3

     total cpu time spent up to now is       38.4 secs

     total energy              =    -306.87278757 Ry
     estimated scf accuracy    <       0.00000003 Ry

     iteration # 16     ecut=    80.00 Ry     beta= 0.70
     Davidson diagonalization with overlap
     ethr =  1.49E-10,  avg # of iterations =  1.7

     total cpu time spent up to now is       39.7 secs

     total energy              =    -306.87278756 Ry
     estimated scf accuracy    <       0.00000002 Ry

     iteration # 17     ecut=    80.00 Ry     beta= 0.70
     Davidson diagonalization with overlap
     ethr =  9.32E-11,  avg # of iterations =  3.9

     total cpu time spent up to now is       41.2 secs

     End of self-consistent calculation

     Number of k-points >= 100: set verbosity='high' to print the bands.

     the Fermi energy is     8.8092 ev

!    total energy              =    -306.87278756 Ry
     total all-electron energy =     -3050.013558 Ry
     estimated scf accuracy    <          1.5E-09 Ry
     smearing contrib. (-TS)   =      -0.00000197 Ry
     internal energy E=F+TS    =    -306.87278559 Ry

     The total energy is F=E-TS. E is the sum of the following terms:
     one-electron contribution =     -74.40833737 Ry
     hartree contribution      =      42.28558021 Ry
     xc contribution           =     -34.52719043 Ry
     ewald contribution        =    -126.46581261 Ry
     one-center paw contrib.   =    -113.75702539 Ry

     convergence has been achieved in  17 iterations

     Writing all to output data dir sc_smearing.out/scandium.save/

     init_run     :      0.82s CPU      0.84s WALL (       1 calls)
     electrons    :     38.25s CPU     40.19s WALL (       1 calls)

     Called by init_run:
     wfcinit      :      0.61s CPU      0.62s WALL (       1 calls)
     potinit      :      0.05s CPU      0.06s WALL (       1 calls)
     hinit0       :      0.14s CPU      0.14s WALL (       1 calls)

     Called by electrons:
     c_bands      :     34.13s CPU     35.92s WALL (      18 calls)
     sum_band     :      3.33s CPU      3.44s WALL (      18 calls)
     v_of_rho     :      0.02s CPU      0.02s WALL (      18 calls)
     newd         :      0.10s CPU      0.11s WALL (      18 calls)
     PAW_pot      :      0.67s CPU      0.67s WALL (      18 calls)
     mix_rho      :      0.02s CPU      0.02s WALL (      18 calls)

     Called by c_bands:
     init_us_2    :      0.45s CPU      0.50s WALL (    2997 calls)
     init_us_2:cp :      0.44s CPU      0.49s WALL (    2997 calls)
     cegterg      :     29.96s CPU     30.84s WALL (    1458 calls)

     Called by *egterg:
     cdiaghg      :      3.02s CPU      3.09s WALL (    9164 calls)
     h_psi        :     20.37s CPU     21.07s WALL (    9326 calls)
     s_psi        :      1.16s CPU      1.18s WALL (    9326 calls)
     g_psi        :      0.11s CPU      0.11s WALL (    7787 calls)

     Called by h_psi:
     h_psi:calbec :      2.13s CPU      2.20s WALL (    9326 calls)
     vloc_psi     :     16.93s CPU     17.53s WALL (    9326 calls)
     add_vuspsi   :      1.18s CPU      1.22s WALL (    9326 calls)

     General routines
     calbec       :      2.58s CPU      2.68s WALL (   10784 calls)
     fft          :      0.03s CPU      0.03s WALL (      73 calls)
     ffts         :      0.00s CPU      0.00s WALL (      18 calls)
     fftw         :     17.89s CPU     18.51s WALL (  174956 calls)

     Parallel routines

     PWSCF        :     39.63s CPU     42.07s WALL


   This run was terminated on:  10:47:19   7Nov2023            

=------------------------------------------------------------------------------=
   JOB DONE.
=------------------------------------------------------------------------------=
