
     Program PWSCF v.7.2 starts on 26Jul2023 at 15:51:53 

     This program is part of the open-source Quantum ESPRESSO suite
     for quantum simulation of materials; please cite
         "P. Giannozzi et al., J. Phys.:Condens. Matter 21 395502 (2009);
         "P. Giannozzi et al., J. Phys.:Condens. Matter 29 465901 (2017);
         "P. Giannozzi et al., J. Chem. Phys. 152 154105 (2020);
          URL http://www.quantum-espresso.org", 
     in publications or presentations arising from this work. More details at
     http://www.quantum-espresso.org/quote

     Parallel version (MPI), running on    20 processors

     MPI processes distributed on     1 nodes
     302860 MiB available memory on the printing compute node when the environment starts

     Waiting for input...
     Reading input from standard input

     Current dimensions of program PWSCF are:
     Max number of different atomic species (ntypx) = 10
     Max number of k-points (npk) = 120000
     Max angular momentum in pseudopotentials (lmaxx) =  4
     file Sc.pz-spn-kjpaw_psl.1.0.0.UPF: wavefunction(s)  3S 3P 3D renormalized

     R & G space division:  proc/nbgrp/npool/nimage =      20
     Subspace diagonalization in iterative solution of the eigenvalue problem:
     a serial algorithm will be used


     Parallelization info
     --------------------
     sticks:   dense  smooth     PW     G-vecs:    dense   smooth      PW
     Min          42      42     12                 1626     1626     256
     Max          43      43     13                 1637     1637     263
     Sum         859     859    253                32631    32631    5203

     Using Slab Decomposition



     bravais-lattice index     =            4
     lattice parameter (alat)  =       6.2531  a.u.
     unit-cell volume          =     337.5249 (a.u.)^3
     number of atoms/cell      =            2
     number of atomic types    =            1
     number of electrons       =        22.00
     number of Kohn-Sham states=           15
     kinetic-energy cutoff     =      80.0000  Ry
     charge density cutoff     =     320.0000  Ry
     scf convergence threshold =      1.0E-08
     mixing beta               =       0.7000
     number of iterations used =            8  plain     mixing
     Exchange-correlation= SLA  PZ   NOGX NOGC
                           (   1   1   0   0   0   0   0)

     celldm(1)=   6.253104  celldm(2)=   0.000000  celldm(3)=   1.594000
     celldm(4)=   0.000000  celldm(5)=   0.000000  celldm(6)=   0.000000

     crystal axes: (cart. coord. in units of alat)
               a(1) = (   1.000000   0.000000   0.000000 )  
               a(2) = (  -0.500000   0.866025   0.000000 )  
               a(3) = (   0.000000   0.000000   1.594000 )  

     reciprocal axes: (cart. coord. in units 2 pi/alat)
               b(1) = (  1.000000  0.577350 -0.000000 )  
               b(2) = (  0.000000  1.154701  0.000000 )  
               b(3) = (  0.000000 -0.000000  0.627353 )  


     PseudoPot. # 1 for Sc read from file:
     ../../../Sc.pz-spn-kjpaw_psl.1.0.0.UPF
     MD5 check sum: 1f9095df0bb42a6568b4e9f256ff075f
     Pseudo is Projector augmented-wave + core cor, Zval = 11.0
     Generated using 'atomic' code by A. Dal Corso  v.7.1
     Shape of augmentation charge: PSQ
     Using radial grid of 1173 points,  6 beta functions with: 
                l(1) =   0
                l(2) =   0
                l(3) =   1
                l(4) =   1
                l(5) =   2
                l(6) =   2
     Q(r) pseudized with 0 coefficients 


     atomic species   valence    mass     pseudopotential
        Sc            11.00    44.59600     Sc( 1.00)

     24 Sym. Ops., with inversion, found (12 have fractional translation)



   Cartesian axes

     site n.     atom                  positions (alat units)
         1           Sc  tau(   1) = (   0.0000000   0.0000000   0.0000000  )
         2           Sc  tau(   2) = (   0.5000000   0.2886751   0.7970000  )

     number of k points=    48  Marzari-Vanderbilt smearing, width (Ry)=  0.0050
                       cart. coord. in units 2pi/alat
        k(    1) = (   0.0000000   0.0000000   0.0000000), wk =   0.0041152
        k(    2) = (   0.0000000   0.0000000   0.1045588), wk =   0.0082305
        k(    3) = (   0.0000000   0.0000000   0.2091175), wk =   0.0082305
        k(    4) = (   0.0000000   0.0000000  -0.3136763), wk =   0.0041152
        k(    5) = (   0.0000000   0.1283001   0.0000000), wk =   0.0246914
        k(    6) = (   0.0000000   0.1283001   0.1045588), wk =   0.0493827
        k(    7) = (   0.0000000   0.1283001   0.2091175), wk =   0.0493827
        k(    8) = (   0.0000000   0.1283001  -0.3136763), wk =   0.0246914
        k(    9) = (   0.0000000   0.2566001   0.0000000), wk =   0.0246914
        k(   10) = (   0.0000000   0.2566001   0.1045588), wk =   0.0493827
        k(   11) = (   0.0000000   0.2566001   0.2091175), wk =   0.0493827
        k(   12) = (   0.0000000   0.2566001  -0.3136763), wk =   0.0246914
        k(   13) = (   0.0000000   0.3849002   0.0000000), wk =   0.0246914
        k(   14) = (   0.0000000   0.3849002   0.1045588), wk =   0.0493827
        k(   15) = (   0.0000000   0.3849002   0.2091175), wk =   0.0493827
        k(   16) = (   0.0000000   0.3849002  -0.3136763), wk =   0.0246914
        k(   17) = (   0.0000000   0.5132002   0.0000000), wk =   0.0246914
        k(   18) = (   0.0000000   0.5132002   0.1045588), wk =   0.0493827
        k(   19) = (   0.0000000   0.5132002   0.2091175), wk =   0.0493827
        k(   20) = (   0.0000000   0.5132002  -0.3136763), wk =   0.0246914
        k(   21) = (   0.1111111   0.1924501   0.0000000), wk =   0.0246914
        k(   22) = (   0.1111111   0.1924501   0.1045588), wk =   0.0493827
        k(   23) = (   0.1111111   0.1924501   0.2091175), wk =   0.0493827
        k(   24) = (   0.1111111   0.1924501  -0.3136763), wk =   0.0246914
        k(   25) = (   0.1111111   0.3207501   0.0000000), wk =   0.0493827
        k(   26) = (   0.1111111   0.3207501   0.1045588), wk =   0.0987654
        k(   27) = (   0.1111111   0.3207501   0.2091175), wk =   0.0987654
        k(   28) = (   0.1111111   0.3207501  -0.3136763), wk =   0.0493827
        k(   29) = (   0.1111111   0.4490502   0.0000000), wk =   0.0493827
        k(   30) = (   0.1111111   0.4490502   0.1045588), wk =   0.0987654
        k(   31) = (   0.1111111   0.4490502   0.2091175), wk =   0.0987654
        k(   32) = (   0.1111111   0.4490502  -0.3136763), wk =   0.0493827
        k(   33) = (   0.1111111   0.5773503   0.0000000), wk =   0.0246914
        k(   34) = (   0.1111111   0.5773503   0.1045588), wk =   0.0493827
        k(   35) = (   0.1111111   0.5773503   0.2091175), wk =   0.0493827
        k(   36) = (   0.1111111   0.5773503  -0.3136763), wk =   0.0246914
        k(   37) = (   0.2222222   0.3849002   0.0000000), wk =   0.0246914
        k(   38) = (   0.2222222   0.3849002   0.1045588), wk =   0.0493827
        k(   39) = (   0.2222222   0.3849002   0.2091175), wk =   0.0493827
        k(   40) = (   0.2222222   0.3849002  -0.3136763), wk =   0.0246914
        k(   41) = (   0.2222222   0.5132002   0.0000000), wk =   0.0493827
        k(   42) = (   0.2222222   0.5132002   0.1045588), wk =   0.0987654
        k(   43) = (   0.2222222   0.5132002   0.2091175), wk =   0.0987654
        k(   44) = (   0.2222222   0.5132002  -0.3136763), wk =   0.0493827
        k(   45) = (   0.3333333   0.5773503   0.0000000), wk =   0.0082305
        k(   46) = (   0.3333333   0.5773503   0.1045588), wk =   0.0164609
        k(   47) = (   0.3333333   0.5773503   0.2091175), wk =   0.0164609
        k(   48) = (   0.3333333   0.5773503  -0.3136763), wk =   0.0082305

     Dense  grid:    32631 G-vectors     FFT dimensions: (  36,  36,  60)

     Estimated max dynamical RAM per process >       9.47 MB

     Estimated total dynamical RAM >     189.35 MB

     Check: negative core charge=   -0.000015

     Initial potential from superposition of free atoms

     starting charge      21.9956, renormalised to      22.0000
     Starting wfcs are   20 randomized atomic wfcs
     Checking if some PAW data can be deallocated... 

     total cpu time spent up to now is        0.7 secs

     Self-consistent Calculation

     iteration #  1     ecut=    80.00 Ry     beta= 0.70
     Davidson diagonalization with overlap
     ethr =  1.00E-02,  avg # of iterations =  2.4

     Threshold (ethr) on eigenvalues was too large:
     Diagonalizing with lowered threshold

     Davidson diagonalization with overlap
     c_bands:  3 eigenvalues not converged
     c_bands:  1 eigenvalues not converged
     c_bands:  1 eigenvalues not converged
     c_bands:  1 eigenvalues not converged
     c_bands:  5 eigenvalues not converged
     c_bands:  1 eigenvalues not converged
     c_bands:  1 eigenvalues not converged
     c_bands:  1 eigenvalues not converged
     c_bands:  5 eigenvalues not converged
     c_bands:  3 eigenvalues not converged
     ethr =  1.71E-05,  avg # of iterations = 17.6

     total cpu time spent up to now is        4.5 secs

     total energy              =    -306.86666303 Ry
     estimated scf accuracy    <       0.02049879 Ry

     iteration #  2     ecut=    80.00 Ry     beta= 0.70
     Davidson diagonalization with overlap
     ethr =  9.32E-05,  avg # of iterations =  3.8

     total cpu time spent up to now is        5.3 secs

     total energy              =    -306.87158631 Ry
     estimated scf accuracy    <       0.00143804 Ry

     iteration #  3     ecut=    80.00 Ry     beta= 0.70
     Davidson diagonalization with overlap
     c_bands:  1 eigenvalues not converged
     ethr =  6.54E-06,  avg # of iterations =  8.3

     total cpu time spent up to now is        6.7 secs

     total energy              =    -306.87270076 Ry
     estimated scf accuracy    <       0.00041005 Ry

     iteration #  4     ecut=    80.00 Ry     beta= 0.70
     Davidson diagonalization with overlap
     ethr =  1.86E-06,  avg # of iterations =  6.1

     total cpu time spent up to now is        7.7 secs

     total energy              =    -306.87291780 Ry
     estimated scf accuracy    <       0.00022573 Ry

     iteration #  5     ecut=    80.00 Ry     beta= 0.70
     Davidson diagonalization with overlap
     ethr =  1.03E-06,  avg # of iterations =  5.1

     total cpu time spent up to now is        8.6 secs

     total energy              =    -306.87301345 Ry
     estimated scf accuracy    <       0.00001224 Ry

     iteration #  6     ecut=    80.00 Ry     beta= 0.70
     Davidson diagonalization with overlap
     ethr =  5.56E-08,  avg # of iterations = 11.2

     total cpu time spent up to now is       10.0 secs

     total energy              =    -306.87302167 Ry
     estimated scf accuracy    <       0.00002582 Ry

     iteration #  7     ecut=    80.00 Ry     beta= 0.70
     Davidson diagonalization with overlap
     ethr =  5.56E-08,  avg # of iterations =  5.4

     total cpu time spent up to now is       10.9 secs

     total energy              =    -306.87302817 Ry
     estimated scf accuracy    <       0.00000002 Ry

     iteration #  8     ecut=    80.00 Ry     beta= 0.70
     Davidson diagonalization with overlap
     c_bands:  1 eigenvalues not converged
     c_bands:  2 eigenvalues not converged
     c_bands:  2 eigenvalues not converged
     c_bands:  1 eigenvalues not converged
     c_bands:  3 eigenvalues not converged
     c_bands:  2 eigenvalues not converged
     c_bands:  2 eigenvalues not converged
     c_bands:  2 eigenvalues not converged
     c_bands:  3 eigenvalues not converged
     c_bands:  3 eigenvalues not converged
     c_bands:  2 eigenvalues not converged
     c_bands:  1 eigenvalues not converged
     c_bands:  3 eigenvalues not converged
     c_bands:  4 eigenvalues not converged
     c_bands:  1 eigenvalues not converged
     c_bands:  1 eigenvalues not converged
     c_bands:  2 eigenvalues not converged
     c_bands:  1 eigenvalues not converged
     c_bands:  4 eigenvalues not converged
     c_bands:  1 eigenvalues not converged
     c_bands:  3 eigenvalues not converged
     c_bands:  3 eigenvalues not converged
     c_bands:  2 eigenvalues not converged
     c_bands:  2 eigenvalues not converged
     c_bands:  2 eigenvalues not converged
     c_bands:  3 eigenvalues not converged
     c_bands:  2 eigenvalues not converged
     c_bands:  3 eigenvalues not converged
     c_bands:  1 eigenvalues not converged
     c_bands:  4 eigenvalues not converged
     c_bands:  3 eigenvalues not converged
     c_bands:  2 eigenvalues not converged
     c_bands:  2 eigenvalues not converged
     c_bands:  4 eigenvalues not converged
     c_bands:  2 eigenvalues not converged
     c_bands:  3 eigenvalues not converged
     c_bands:  2 eigenvalues not converged
     c_bands:  3 eigenvalues not converged
     c_bands:  4 eigenvalues not converged
     c_bands:  2 eigenvalues not converged
     ethr =  9.85E-11,  avg # of iterations = 20.2

     total cpu time spent up to now is       14.3 secs

     total energy              =    -306.87302939 Ry
     estimated scf accuracy    <       0.00000003 Ry

     iteration #  9     ecut=    80.00 Ry     beta= 0.70
     Davidson diagonalization with overlap
     ethr =  9.85E-11,  avg # of iterations =  4.5

     total cpu time spent up to now is       15.0 secs

     total energy              =    -306.87302937 Ry
     estimated scf accuracy    <       0.00000006 Ry

     iteration # 10     ecut=    80.00 Ry     beta= 0.70
     Davidson diagonalization with overlap
     ethr =  9.85E-11,  avg # of iterations =  4.3

     total cpu time spent up to now is       15.8 secs

     End of self-consistent calculation

          k = 0.0000 0.0000 0.0000 (  4055 PWs)   bands (ev):

   -40.1419 -40.0776 -19.2228 -18.8950 -18.8950 -18.8366 -18.8366 -18.8140
     3.7530   7.1382   9.3020  10.3465  10.3465  10.4608  10.7499

          k = 0.0000 0.0000 0.1046 (  4061 PWs)   bands (ev):

   -40.1376 -40.0819 -19.1963 -18.8911 -18.8911 -18.8422 -18.8406 -18.8406
     3.9321   6.8665   9.2615  10.2807  10.2808  10.3469  10.6554

          k = 0.0000 0.0000 0.2091 (  4078 PWs)   bands (ev):

   -40.1259 -40.0938 -19.1232 -18.9188 -18.8805 -18.8805 -18.8513 -18.8513
     4.4481   6.1288   9.3570  10.0437  10.2265  10.2265  10.4567

          k = 0.0000 0.0000-0.3137 (  4060 PWs)   bands (ev):

   -40.1099 -40.1099 -19.0218 -19.0218 -18.8659 -18.8659 -18.8659 -18.8659
     5.2297   5.2297   9.6638   9.6638  10.2880  10.2880  10.2880

          k = 0.0000 0.1283 0.0000 (  4073 PWs)   bands (ev):

   -40.1361 -40.0752 -19.2073 -18.9269 -18.9055 -18.8698 -18.8412 -18.8206
     4.0202   7.3648   9.0918   9.9499  10.5407  10.5697  10.7569

          k = 0.0000 0.1283 0.1046 (  4060 PWs)   bands (ev):

   -40.1320 -40.0793 -19.1837 -18.9216 -18.9012 -18.8849 -18.8456 -18.8358
     4.1947   7.0914   9.0631   9.9618  10.4245  10.4407  10.8002

          k = 0.0000 0.1283 0.2091 (  4065 PWs)   bands (ev):

   -40.1209 -40.0905 -19.1189 -18.9421 -18.9061 -18.8895 -18.8618 -18.8574
     4.6979   6.3511   9.1998   9.9859  10.0409  10.3721  10.3975

          k = 0.0000 0.1283-0.3137 (  4070 PWs)   bands (ev):

   -40.1058 -40.1058 -19.0298 -19.0298 -18.8854 -18.8854 -18.8734 -18.8734
     5.4630   5.4630   9.5526   9.5527  10.1826  10.1829  10.4346

          k = 0.0000 0.2566 0.0000 (  4069 PWs)   bands (ev):

   -40.1208 -40.0698 -19.1647 -19.0084 -18.9513 -18.9310 -18.8538 -18.8406
     4.7752   7.8987   8.6813   9.3783  10.2380  10.5574  10.6464

          k = 0.0000 0.2566 0.1046 (  4071 PWs)   bands (ev):

   -40.1174 -40.0732 -19.1528 -18.9972 -18.9666 -18.9259 -18.8590 -18.8491
     4.9331   7.6286   8.6961   9.4260  10.1965  10.4074  10.6229

          k = 0.0000 0.2566 0.2091 (  4073 PWs)   bands (ev):

   -40.1081 -40.0826 -19.1189 -19.0157 -18.9576 -18.9118 -18.8750 -18.8732
     5.3891   6.9097   8.9135   9.5172   9.9230  10.2213  10.6511

          k = 0.0000 0.2566-0.3137 (  4064 PWs)   bands (ev):

   -40.0954 -40.0954 -19.0692 -19.0692 -18.9148 -18.9148 -18.8926 -18.8926
     6.0863   6.0863   9.2845   9.2846   9.9665   9.9665  10.7892

          k = 0.0000 0.3849 0.0000 (  4090 PWs)   bands (ev):

   -40.1020 -40.0650 -19.1066 -19.1023 -19.0403 -18.9588 -18.8729 -18.8692
     5.8643   8.1821   8.3327   8.9094  10.2082  10.2191  10.3537

          k = 0.0000 0.3849 0.1046 (  4081 PWs)   bands (ev):

   -40.0995 -40.0675 -19.1432 -19.0683 -19.0366 -18.9528 -18.8753 -18.8739
     5.9828   7.9471   8.4452   8.9783  10.0140  10.2954  10.4412

          k = 0.0000 0.3849 0.2091 (  4079 PWs)   bands (ev):

   -40.0928 -40.0743 -19.1551 -19.1030 -18.9770 -18.9366 -18.8918 -18.8868
     6.3231   7.4288   8.7058   9.0861   9.8496  10.1411  10.6929

          k = 0.0000 0.3849-0.3137 (  4070 PWs)   bands (ev):

   -40.0835 -40.0835 -19.1390 -19.1390 -18.9219 -18.9219 -18.9142 -18.9142
     6.8362   6.8362   8.9996   8.9996   9.8938   9.8939  11.0724

          k = 0.0000 0.5132 0.0000 (  4082 PWs)   bands (ev):

   -40.0875 -40.0640 -19.1639 -19.0965 -19.0552 -18.9764 -18.9074 -18.8797
     6.9587   7.9219   8.1458   8.6002  10.0152  10.1852  10.4769

          k = 0.0000 0.5132 0.1046 (  4078 PWs)   bands (ev):

   -40.0860 -40.0656 -19.1820 -19.1178 -19.0217 -18.9700 -18.9010 -18.8862
     6.9839   7.8115   8.3135   8.6359  10.0662  10.2984  10.3713

          k = 0.0000 0.5132 0.2091 (  4076 PWs)   bands (ev):

   -40.0817 -40.0699 -19.1989 -19.1586 -18.9650 -18.9524 -18.9040 -18.8989
     7.0876   7.5697   8.6209   8.8006  10.0687  10.1605  10.6280

          k = 0.0000 0.5132-0.3137 (  4086 PWs)   bands (ev):

   -40.0758 -40.0758 -19.1907 -19.1907 -18.9283 -18.9283 -18.9198 -18.9198
     7.2949   7.2949   8.8621   8.8621  10.0242  10.0244  11.1397

          k = 0.1111 0.1925 0.0000 (  4059 PWs)   bands (ev):

   -40.1256 -40.0713 -19.1782 -18.9747 -18.9499 -18.9035 -18.8560 -18.8339
     4.5328   7.7587   8.7998   9.5162  10.3355  10.5555  10.9431

          k = 0.1111 0.1925 0.1046 (  4065 PWs)   bands (ev):

   -40.1219 -40.0750 -19.1615 -18.9655 -18.9554 -18.9111 -18.8608 -18.8429
     4.6969   7.4846   8.7962   9.5587  10.3297  10.3730  10.6450

          k = 0.1111 0.1925 0.2091 (  4058 PWs)   bands (ev):

   -40.1121 -40.0849 -19.1159 -18.9915 -18.9406 -18.9108 -18.8735 -18.8669
     5.1709   6.7488   8.9920   9.6516   9.9553  10.2478  10.5995

          k = 0.1111 0.1925-0.3137 (  4064 PWs)   bands (ev):

   -40.0985 -40.0985 -19.0531 -19.0531 -18.9103 -18.9103 -18.8867 -18.8867
     5.8954   5.8954   9.3731   9.3731  10.0008  10.0009  10.6878

          k = 0.1111 0.3208 0.0000 (  4073 PWs)   bands (ev):

   -40.1084 -40.0663 -19.1273 -19.0550 -19.0203 -18.9444 -18.8779 -18.8606
     5.4670   8.2434   8.4703   8.9977  10.1415  10.1827  10.5573

          k = 0.1111 0.3208 0.1046 (  4072 PWs)   bands (ev):

   -40.1056 -40.0691 -19.1340 -19.0430 -19.0163 -18.9470 -18.8844 -18.8610
     5.6055   7.9779   8.5411   9.0594  10.0350  10.2503  10.5087

          k = 0.1111 0.3208 0.2091 (  4075 PWs)   bands (ev):

   -40.0979 -40.0769 -19.1311 -19.0696 -18.9721 -18.9409 -18.8994 -18.8733
     6.0049   7.3325   8.7941   9.1914   9.8212  10.0780  10.6630

          k = 0.1111 0.3208-0.3137 (  4078 PWs)   bands (ev):

   -40.0874 -40.0874 -19.1069 -19.1069 -18.9365 -18.9365 -18.9000 -18.9000
     6.6139   6.6139   9.1156   9.1157   9.8052   9.8054  10.9599

          k = 0.1111 0.4491 0.0000 (  4071 PWs)   bands (ev):

   -40.0913 -40.0639 -19.1321 -19.0740 -19.0695 -18.9818 -18.8970 -18.8955
     6.6038   8.2112   8.2488   8.6620   9.9739  10.2326  10.3677

          k = 0.1111 0.4491 0.1046 (  4088 PWs)   bands (ev):

   -40.0894 -40.0658 -19.1540 -19.0974 -19.0290 -18.9763 -18.9075 -18.8854
     6.6860   8.0219   8.3932   8.7573   9.9094  10.1718  10.4303

          k = 0.1111 0.4491 0.2091 (  4076 PWs)   bands (ev):

   -40.0844 -40.0708 -19.1719 -19.1337 -18.9870 -18.9507 -18.9227 -18.8831
     6.9223   7.6782   8.6610   8.9325   9.7769   9.9447  10.6791

          k = 0.1111 0.4491-0.3137 (  4078 PWs)   bands (ev):

   -40.0776 -40.0776 -19.1640 -19.1640 -18.9582 -18.9582 -18.9022 -18.9022
     7.2767   7.2767   8.9366   8.9366   9.7359   9.7364  11.0856

          k = 0.1111 0.5774 0.0000 (  4077 PWs)   bands (ev):

   -40.0830 -40.0645 -19.1626 -19.0950 -19.0371 -18.9963 -18.9210 -18.9024
     7.3834   7.9030   8.1736   8.4923   9.9515  10.0516  10.5626

          k = 0.1111 0.5774 0.1046 (  4077 PWs)   bands (ev):

   -40.0817 -40.0657 -19.1777 -19.1164 -19.0210 -18.9785 -18.9228 -18.8975
     7.3610   7.8663   8.3513   8.5254   9.9591  10.0221  10.5729

          k = 0.1111 0.5774 0.2091 (  4077 PWs)   bands (ev):

   -40.0783 -40.0691 -19.1940 -19.1572 -18.9953 -18.9403 -18.9365 -18.8895
     7.3849   7.7146   8.7031   8.7264   9.8277   9.8929  10.7759

          k = 0.1111 0.5774-0.3137 (  4086 PWs)   bands (ev):

   -40.0737 -40.0737 -19.1877 -19.1877 -18.9671 -18.9671 -18.9014 -18.9014
     7.5168   7.5168   8.9133   8.9133   9.7211   9.7213  11.1886

          k = 0.2222 0.3849 0.0000 (  4095 PWs)   bands (ev):

   -40.0927 -40.0640 -19.0942 -19.0772 -19.0749 -18.9787 -18.9207 -18.8932
     6.4802   8.3329   8.4934   8.5833   9.8739  10.2789  10.2868

          k = 0.2222 0.3849 0.1046 (  4094 PWs)   bands (ev):

   -40.0908 -40.0659 -19.1231 -19.0997 -19.0169 -18.9901 -18.9255 -18.8833
     6.5841   8.1874   8.5808   8.6493   9.8390  10.1336  10.3315

          k = 0.2222 0.3849 0.2091 (  4087 PWs)   bands (ev):

   -40.0855 -40.0711 -19.1461 -19.1199 -18.9943 -18.9733 -18.9264 -18.8782
     6.8803   7.8039   8.7963   8.8274   9.6990   9.8082  10.5460

          k = 0.2222 0.3849-0.3137 (  4072 PWs)   bands (ev):

   -40.0783 -40.0783 -19.1423 -19.1423 -18.9804 -18.9804 -18.8963 -18.8963
     7.3189   7.3189   8.9658   8.9658   9.5794   9.5795  10.9460

          k = 0.2222 0.5132 0.0000 (  4091 PWs)   bands (ev):

   -40.0796 -40.0652 -19.1320 -19.0767 -19.0248 -19.0232 -18.9501 -18.9319
     7.5034   8.2589   8.2906   8.4235   9.7878   9.9602  10.6134

          k = 0.2222 0.5132 0.1046 (  4085 PWs)   bands (ev):

   -40.0787 -40.0661 -19.1414 -19.1022 -19.0432 -18.9837 -18.9572 -18.9104
     7.5528   8.1801   8.3838   8.5626   9.7261   9.8093  10.6316

          k = 0.2222 0.5132 0.2091 (  4103 PWs)   bands (ev):

   -40.0760 -40.0688 -19.1592 -19.1366 -19.0400 -18.9896 -18.9228 -18.8887
     7.6895   8.0525   8.6270   8.8420   9.4495   9.5437  10.7509

          k = 0.2222 0.5132-0.3137 (  4090 PWs)   bands (ev):

   -40.0724 -40.0724 -19.1596 -19.1596 -19.0167 -19.0167 -18.8919 -18.8919
     7.8761   7.8761   8.9570   8.9570   9.2681   9.2681  11.0544

          k = 0.3333 0.5774 0.0000 (  4077 PWs)   bands (ev):

   -40.0703 -40.0703 -19.1186 -19.0573 -19.0573 -18.9902 -18.9753 -18.9753
     8.1575   8.1575   8.2595   8.3477   9.7601   9.7601  10.7680

          k = 0.3333 0.5774 0.1046 (  4092 PWs)   bands (ev):

   -40.0703 -40.0703 -19.1101 -19.0888 -19.0888 -18.9989 -18.9433 -18.9433
     8.2382   8.2382   8.2925   8.3790   9.6259   9.6259  10.7684

          k = 0.3333 0.5774 0.2091 (  4083 PWs)   bands (ev):

   -40.0703 -40.0703 -19.1276 -19.1276 -19.0868 -19.0226 -18.9037 -18.9037
     8.3710   8.4345   8.4564   8.4564   9.3140   9.3140  10.8308

          k = 0.3333 0.5774-0.3137 (  4128 PWs)   bands (ev):

   -40.0703 -40.0703 -19.1425 -19.1425 -19.0548 -19.0548 -18.8883 -18.8883
     8.4375   8.4375   8.6535   8.6535   9.0753   9.0753  11.0761

     the Fermi energy is     8.8052 ev

!    total energy              =    -306.87302938 Ry
     total all-electron energy =     -3050.013800 Ry
     estimated scf accuracy    <          4.3E-09 Ry
     smearing contrib. (-TS)   =      -0.00005735 Ry
     internal energy E=F+TS    =    -306.87297203 Ry

     The total energy is F=E-TS. E is the sum of the following terms:
     one-electron contribution =     -74.40443010 Ry
     hartree contribution      =      42.28087122 Ry
     xc contribution           =     -34.52648682 Ry
     ewald contribution        =    -126.46581261 Ry
     one-center paw contrib.   =    -113.75711372 Ry

     convergence has been achieved in  10 iterations

     Writing all to output data dir sc_smearing.out/scandium.save/

     init_run     :      0.49s CPU      0.51s WALL (       1 calls)
     electrons    :     14.50s CPU     15.13s WALL (       1 calls)

     Called by init_run:
     wfcinit      :      0.33s CPU      0.34s WALL (       1 calls)
     potinit      :      0.05s CPU      0.05s WALL (       1 calls)
     hinit0       :      0.10s CPU      0.10s WALL (       1 calls)

     Called by electrons:
     c_bands      :     13.02s CPU     13.61s WALL (      11 calls)
     sum_band     :      1.06s CPU      1.08s WALL (      11 calls)
     v_of_rho     :      0.01s CPU      0.01s WALL (      11 calls)
     newd         :      0.10s CPU      0.10s WALL (      11 calls)
     PAW_pot      :      0.33s CPU      0.33s WALL (      11 calls)
     mix_rho      :      0.01s CPU      0.01s WALL (      11 calls)

     Called by c_bands:
     init_us_2    :      0.13s CPU      0.14s WALL (    1104 calls)
     init_us_2:cp :      0.13s CPU      0.14s WALL (    1104 calls)
     cegterg      :     12.73s CPU     13.12s WALL (     533 calls)

     Called by *egterg:
     cdiaghg      :      1.41s CPU      1.44s WALL (    4748 calls)
     h_psi        :      8.51s CPU      8.81s WALL (    4846 calls)
     s_psi        :      0.56s CPU      0.58s WALL (    4846 calls)
     g_psi        :      0.06s CPU      0.06s WALL (    4265 calls)

     Called by h_psi:
     h_psi:calbec :      0.70s CPU      0.73s WALL (    4846 calls)
     vloc_psi     :      7.19s CPU      7.45s WALL (    4846 calls)
     add_vuspsi   :      0.57s CPU      0.59s WALL (    4846 calls)

     General routines
     calbec       :      0.82s CPU      0.85s WALL (    5374 calls)
     fft          :      0.01s CPU      0.01s WALL (      45 calls)
     ffts         :      0.00s CPU      0.00s WALL (      11 calls)
     fftw         :      7.33s CPU      7.59s WALL (   87968 calls)

     Parallel routines

     PWSCF        :     15.32s CPU     16.96s WALL


   This run was terminated on:  15:52:10  26Jul2023            

=------------------------------------------------------------------------------=
   JOB DONE.
=------------------------------------------------------------------------------=
