
     Program PWSCF v.7.2 starts on 16Jun2023 at 16:22:57 

     This program is part of the open-source Quantum ESPRESSO suite
     for quantum simulation of materials; please cite
         "P. Giannozzi et al., J. Phys.:Condens. Matter 21 395502 (2009);
         "P. Giannozzi et al., J. Phys.:Condens. Matter 29 465901 (2017);
         "P. Giannozzi et al., J. Chem. Phys. 152 154105 (2020);
          URL http://www.quantum-espresso.org", 
     in publications or presentations arising from this work. More details at
     http://www.quantum-espresso.org/quote

     Parallel version (MPI), running on     1 processors

     MPI processes distributed on     1 nodes
     317330 MiB available memory on the printing compute node when the environment starts

     Waiting for input...
     Reading input from standard input

     Current dimensions of program PWSCF are:
     Max number of different atomic species (ntypx) = 10
     Max number of k-points (npk) = 120000
     Max angular momentum in pseudopotentials (lmaxx) =  4
     file Sc.pz-spn-kjpaw_psl.1.0.0.UPF: wavefunction(s)  3S 3P 3D renormalized

     Subspace diagonalization in iterative solution of the eigenvalue problem:
     a serial algorithm will be used


     G-vector sticks info
     --------------------
     sticks:   dense  smooth     PW     G-vecs:    dense   smooth      PW
     Sum         745     745    223                26741    26741    4259

     Using Slab Decomposition



     bravais-lattice index     =            4
     lattice parameter (alat)  =       6.2531  a.u.
     unit-cell volume          =     337.5249 (a.u.)^3
     number of atoms/cell      =            2
     number of atomic types    =            1
     number of electrons       =        22.00
     number of Kohn-Sham states=           15
     kinetic-energy cutoff     =      70.0000  Ry
     charge density cutoff     =     280.0000  Ry
     scf convergence threshold =      1.0E-08
     mixing beta               =       0.7000
     number of iterations used =            8  plain     mixing
     energy convergence thresh.=      1.0E-04
     force convergence thresh. =      1.0E-03
     press convergence thresh. =      5.0E-01
     Exchange-correlation= SLA  PZ   NOGX NOGC
                           (   1   1   0   0   0   0   0)
     nstep                     =           50


     celldm(1)=   6.253104  celldm(2)=   0.000000  celldm(3)=   1.594000
     celldm(4)=   0.000000  celldm(5)=   0.000000  celldm(6)=   0.000000

     crystal axes: (cart. coord. in units of alat)
               a(1) = (   1.000000   0.000000   0.000000 )  
               a(2) = (  -0.500000   0.866025   0.000000 )  
               a(3) = (   0.000000   0.000000   1.594000 )  

     reciprocal axes: (cart. coord. in units 2 pi/alat)
               b(1) = (  1.000000  0.577350 -0.000000 )  
               b(2) = (  0.000000  1.154701  0.000000 )  
               b(3) = (  0.000000 -0.000000  0.627353 )  


     PseudoPot. # 1 for Sc read from file:
     ../../../Sc.pz-spn-kjpaw_psl.1.0.0.UPF
     MD5 check sum: 1f9095df0bb42a6568b4e9f256ff075f
     Pseudo is Projector augmented-wave + core cor, Zval = 11.0
     Generated using 'atomic' code by A. Dal Corso  v.7.1
     Shape of augmentation charge: PSQ
     Using radial grid of 1173 points,  6 beta functions with: 
                l(1) =   0
                l(2) =   0
                l(3) =   1
                l(4) =   1
                l(5) =   2
                l(6) =   2
     Q(r) pseudized with 0 coefficients 


     atomic species   valence    mass     pseudopotential
        Sc            11.00    44.59600     Sc( 1.00)

     24 Sym. Ops., with inversion, found (12 have fractional translation)



   Cartesian axes

     site n.     atom                  positions (alat units)
         1           Sc  tau(   1) = (   0.0000000   0.0000000   0.0000000  )
         2           Sc  tau(   2) = (   0.5000000   0.2886751   0.7970000  )

     number of k points=    95  Marzari-Vanderbilt smearing, width (Ry)=  0.0200
                       cart. coord. in units 2pi/alat
        k(    1) = (   0.0000000   0.0000000   0.0000000), wk =   0.0017361
        k(    2) = (   0.0000000   0.0000000   0.0784191), wk =   0.0034722
        k(    3) = (   0.0000000   0.0000000   0.1568381), wk =   0.0034722
        k(    4) = (   0.0000000   0.0000000   0.2352572), wk =   0.0034722
        k(    5) = (   0.0000000   0.0000000  -0.3136763), wk =   0.0017361
        k(    6) = (   0.0000000   0.0962250   0.0000000), wk =   0.0104167
        k(    7) = (   0.0000000   0.0962250   0.0784191), wk =   0.0208333
        k(    8) = (   0.0000000   0.0962250   0.1568381), wk =   0.0208333
        k(    9) = (   0.0000000   0.0962250   0.2352572), wk =   0.0208333
        k(   10) = (   0.0000000   0.0962250  -0.3136763), wk =   0.0104167
        k(   11) = (   0.0000000   0.1924501   0.0000000), wk =   0.0104167
        k(   12) = (   0.0000000   0.1924501   0.0784191), wk =   0.0208333
        k(   13) = (   0.0000000   0.1924501   0.1568381), wk =   0.0208333
        k(   14) = (   0.0000000   0.1924501   0.2352572), wk =   0.0208333
        k(   15) = (   0.0000000   0.1924501  -0.3136763), wk =   0.0104167
        k(   16) = (   0.0000000   0.2886751   0.0000000), wk =   0.0104167
        k(   17) = (   0.0000000   0.2886751   0.0784191), wk =   0.0208333
        k(   18) = (   0.0000000   0.2886751   0.1568381), wk =   0.0208333
        k(   19) = (   0.0000000   0.2886751   0.2352572), wk =   0.0208333
        k(   20) = (   0.0000000   0.2886751  -0.3136763), wk =   0.0104167
        k(   21) = (   0.0000000   0.3849002   0.0000000), wk =   0.0104167
        k(   22) = (   0.0000000   0.3849002   0.0784191), wk =   0.0208333
        k(   23) = (   0.0000000   0.3849002   0.1568381), wk =   0.0208333
        k(   24) = (   0.0000000   0.3849002   0.2352572), wk =   0.0208333
        k(   25) = (   0.0000000   0.3849002  -0.3136763), wk =   0.0104167
        k(   26) = (   0.0000000   0.4811252   0.0000000), wk =   0.0104167
        k(   27) = (   0.0000000   0.4811252   0.0784191), wk =   0.0208333
        k(   28) = (   0.0000000   0.4811252   0.1568381), wk =   0.0208333
        k(   29) = (   0.0000000   0.4811252   0.2352572), wk =   0.0208333
        k(   30) = (   0.0000000   0.4811252  -0.3136763), wk =   0.0104167
        k(   31) = (   0.0000000  -0.5773503   0.0000000), wk =   0.0052083
        k(   32) = (   0.0000000  -0.5773503   0.0784191), wk =   0.0104167
        k(   33) = (   0.0000000  -0.5773503   0.1568381), wk =   0.0104167
        k(   34) = (   0.0000000  -0.5773503   0.2352572), wk =   0.0104167
        k(   35) = (   0.0000000  -0.5773503  -0.3136763), wk =   0.0052083
        k(   36) = (   0.0833333   0.1443376   0.0000000), wk =   0.0104167
        k(   37) = (   0.0833333   0.1443376   0.0784191), wk =   0.0208333
        k(   38) = (   0.0833333   0.1443376   0.1568381), wk =   0.0208333
        k(   39) = (   0.0833333   0.1443376   0.2352572), wk =   0.0208333
        k(   40) = (   0.0833333   0.1443376  -0.3136763), wk =   0.0104167
        k(   41) = (   0.0833333   0.2405626   0.0000000), wk =   0.0208333
        k(   42) = (   0.0833333   0.2405626   0.0784191), wk =   0.0416667
        k(   43) = (   0.0833333   0.2405626   0.1568381), wk =   0.0416667
        k(   44) = (   0.0833333   0.2405626   0.2352572), wk =   0.0416667
        k(   45) = (   0.0833333   0.2405626  -0.3136763), wk =   0.0208333
        k(   46) = (   0.0833333   0.3367877   0.0000000), wk =   0.0208333
        k(   47) = (   0.0833333   0.3367877   0.0784191), wk =   0.0416667
        k(   48) = (   0.0833333   0.3367877   0.1568381), wk =   0.0416667
        k(   49) = (   0.0833333   0.3367877   0.2352572), wk =   0.0416667
        k(   50) = (   0.0833333   0.3367877  -0.3136763), wk =   0.0208333
        k(   51) = (   0.0833333   0.4330127   0.0000000), wk =   0.0208333
        k(   52) = (   0.0833333   0.4330127   0.0784191), wk =   0.0416667
        k(   53) = (   0.0833333   0.4330127   0.1568381), wk =   0.0416667
        k(   54) = (   0.0833333   0.4330127   0.2352572), wk =   0.0416667
        k(   55) = (   0.0833333   0.4330127  -0.3136763), wk =   0.0208333
        k(   56) = (   0.0833333   0.5292377   0.0000000), wk =   0.0208333
        k(   57) = (   0.0833333   0.5292377   0.0784191), wk =   0.0416667
        k(   58) = (   0.0833333   0.5292377   0.1568381), wk =   0.0416667
        k(   59) = (   0.0833333   0.5292377   0.2352572), wk =   0.0416667
        k(   60) = (   0.0833333   0.5292377  -0.3136763), wk =   0.0208333
        k(   61) = (   0.1666667   0.2886751   0.0000000), wk =   0.0104167
        k(   62) = (   0.1666667   0.2886751   0.0784191), wk =   0.0208333
        k(   63) = (   0.1666667   0.2886751   0.1568381), wk =   0.0208333
        k(   64) = (   0.1666667   0.2886751   0.2352572), wk =   0.0208333
        k(   65) = (   0.1666667   0.2886751  -0.3136763), wk =   0.0104167
        k(   66) = (   0.1666667   0.3849002   0.0000000), wk =   0.0208333
        k(   67) = (   0.1666667   0.3849002   0.0784191), wk =   0.0416667
        k(   68) = (   0.1666667   0.3849002   0.1568381), wk =   0.0416667
        k(   69) = (   0.1666667   0.3849002   0.2352572), wk =   0.0416667
        k(   70) = (   0.1666667   0.3849002  -0.3136763), wk =   0.0208333
        k(   71) = (   0.1666667   0.4811252   0.0000000), wk =   0.0208333
        k(   72) = (   0.1666667   0.4811252   0.0784191), wk =   0.0416667
        k(   73) = (   0.1666667   0.4811252   0.1568381), wk =   0.0416667
        k(   74) = (   0.1666667   0.4811252   0.2352572), wk =   0.0416667
        k(   75) = (   0.1666667   0.4811252  -0.3136763), wk =   0.0208333
        k(   76) = (   0.1666667   0.5773503   0.0000000), wk =   0.0104167
        k(   77) = (   0.1666667   0.5773503   0.0784191), wk =   0.0208333
        k(   78) = (   0.1666667   0.5773503   0.1568381), wk =   0.0208333
        k(   79) = (   0.1666667   0.5773503   0.2352572), wk =   0.0208333
        k(   80) = (   0.1666667   0.5773503  -0.3136763), wk =   0.0104167
        k(   81) = (   0.2500000   0.4330127   0.0000000), wk =   0.0104167
        k(   82) = (   0.2500000   0.4330127   0.0784191), wk =   0.0208333
        k(   83) = (   0.2500000   0.4330127   0.1568381), wk =   0.0208333
        k(   84) = (   0.2500000   0.4330127   0.2352572), wk =   0.0208333
        k(   85) = (   0.2500000   0.4330127  -0.3136763), wk =   0.0104167
        k(   86) = (   0.2500000   0.5292377   0.0000000), wk =   0.0208333
        k(   87) = (   0.2500000   0.5292377   0.0784191), wk =   0.0416667
        k(   88) = (   0.2500000   0.5292377   0.1568381), wk =   0.0416667
        k(   89) = (   0.2500000   0.5292377   0.2352572), wk =   0.0416667
        k(   90) = (   0.2500000   0.5292377  -0.3136763), wk =   0.0208333
        k(   91) = (   0.3333333   0.5773503   0.0000000), wk =   0.0034722
        k(   92) = (   0.3333333   0.5773503   0.0784191), wk =   0.0069444
        k(   93) = (   0.3333333   0.5773503   0.1568381), wk =   0.0069444
        k(   94) = (   0.3333333   0.5773503   0.2352572), wk =   0.0069444
        k(   95) = (   0.3333333   0.5773503  -0.3136763), wk =   0.0034722

     Dense  grid:    26741 G-vectors     FFT dimensions: (  36,  36,  54)

     Estimated max dynamical RAM per process >     175.80 MB

     Check: negative core charge=   -0.000035

     Initial potential from superposition of free atoms

     starting charge      21.9956, renormalised to      22.0000
     Starting wfcs are   20 randomized atomic wfcs
     Checking if some PAW data can be deallocated... 

     total cpu time spent up to now is        8.8 secs

     Self-consistent Calculation

     iteration #  1     ecut=    70.00 Ry     beta= 0.70
     Davidson diagonalization with overlap
     ethr =  1.00E-02,  avg # of iterations =  2.2

     Threshold (ethr) on eigenvalues was too large:
     Diagonalizing with lowered threshold

     Davidson diagonalization with overlap
     c_bands:  3 eigenvalues not converged
     c_bands:  2 eigenvalues not converged
     c_bands:  2 eigenvalues not converged
     c_bands:  1 eigenvalues not converged
     c_bands:  1 eigenvalues not converged
     c_bands:  1 eigenvalues not converged
     c_bands:  2 eigenvalues not converged
     c_bands:  4 eigenvalues not converged
     c_bands:  1 eigenvalues not converged
     c_bands:  2 eigenvalues not converged
     c_bands:  5 eigenvalues not converged
     c_bands:  2 eigenvalues not converged
     c_bands:  2 eigenvalues not converged
     c_bands:  3 eigenvalues not converged
     c_bands:  4 eigenvalues not converged
     c_bands:  4 eigenvalues not converged
     c_bands:  1 eigenvalues not converged
     c_bands:  3 eigenvalues not converged
     c_bands:  2 eigenvalues not converged
     c_bands:  2 eigenvalues not converged
     c_bands:  1 eigenvalues not converged
     c_bands:  1 eigenvalues not converged
     c_bands:  4 eigenvalues not converged
     c_bands:  2 eigenvalues not converged
     c_bands:  1 eigenvalues not converged
     c_bands:  3 eigenvalues not converged
     c_bands:  2 eigenvalues not converged
     c_bands:  1 eigenvalues not converged
     c_bands:  2 eigenvalues not converged
     c_bands:  3 eigenvalues not converged
     c_bands:  1 eigenvalues not converged
     ethr =  1.57E-05,  avg # of iterations = 17.7

     total cpu time spent up to now is       75.8 secs

     total energy              =    -306.86620930 Ry
     estimated scf accuracy    <       0.02032943 Ry

     iteration #  2     ecut=    70.00 Ry     beta= 0.70
     Davidson diagonalization with overlap
     ethr =  9.24E-05,  avg # of iterations =  4.4

     total cpu time spent up to now is       90.3 secs

     total energy              =    -306.87113666 Ry
     estimated scf accuracy    <       0.00156348 Ry

     iteration #  3     ecut=    70.00 Ry     beta= 0.70
     Davidson diagonalization with overlap
     c_bands:  2 eigenvalues not converged
     c_bands:  1 eigenvalues not converged
     c_bands:  1 eigenvalues not converged
     ethr =  7.11E-06,  avg # of iterations =  9.0

     total cpu time spent up to now is      112.2 secs

     total energy              =    -306.87221686 Ry
     estimated scf accuracy    <       0.00032494 Ry

     iteration #  4     ecut=    70.00 Ry     beta= 0.70
     Davidson diagonalization with overlap
     c_bands:  1 eigenvalues not converged
     ethr =  1.48E-06,  avg # of iterations =  7.3

     total cpu time spent up to now is      130.7 secs

     total energy              =    -306.87239730 Ry
     estimated scf accuracy    <       0.00016533 Ry

     iteration #  5     ecut=    70.00 Ry     beta= 0.70
     Davidson diagonalization with overlap
     ethr =  7.51E-07,  avg # of iterations =  6.6

     total cpu time spent up to now is      147.0 secs

     total energy              =    -306.87247634 Ry
     estimated scf accuracy    <       0.00001464 Ry

     iteration #  6     ecut=    70.00 Ry     beta= 0.70
     Davidson diagonalization with overlap
     ethr =  6.66E-08,  avg # of iterations =  8.9

     total cpu time spent up to now is      166.0 secs

     total energy              =    -306.87247841 Ry
     estimated scf accuracy    <       0.00001883 Ry

     iteration #  7     ecut=    70.00 Ry     beta= 0.70
     Davidson diagonalization with overlap
     ethr =  6.66E-08,  avg # of iterations =  4.5

     total cpu time spent up to now is      180.3 secs

     total energy              =    -306.87248233 Ry
     estimated scf accuracy    <       0.00000017 Ry

     iteration #  8     ecut=    70.00 Ry     beta= 0.70
     Davidson diagonalization with overlap
     c_bands:  1 eigenvalues not converged
     c_bands:  1 eigenvalues not converged
     c_bands:  1 eigenvalues not converged
     c_bands:  1 eigenvalues not converged
     c_bands:  2 eigenvalues not converged
     c_bands:  1 eigenvalues not converged
     c_bands:  1 eigenvalues not converged
     c_bands:  1 eigenvalues not converged
     c_bands:  1 eigenvalues not converged
     c_bands:  1 eigenvalues not converged
     c_bands:  1 eigenvalues not converged
     c_bands:  2 eigenvalues not converged
     c_bands:  1 eigenvalues not converged
     c_bands:  2 eigenvalues not converged
     c_bands:  2 eigenvalues not converged
     c_bands:  2 eigenvalues not converged
     c_bands:  1 eigenvalues not converged
     c_bands:  2 eigenvalues not converged
     c_bands:  2 eigenvalues not converged
     c_bands:  2 eigenvalues not converged
     c_bands:  1 eigenvalues not converged
     c_bands:  3 eigenvalues not converged
     ethr =  7.60E-10,  avg # of iterations = 18.2

     total cpu time spent up to now is      222.0 secs

     total energy              =    -306.87248403 Ry
     estimated scf accuracy    <       0.00000084 Ry

     iteration #  9     ecut=    70.00 Ry     beta= 0.70
     Davidson diagonalization with overlap
     ethr =  7.60E-10,  avg # of iterations =  6.9

     total cpu time spent up to now is      239.9 secs

     End of self-consistent calculation

          k = 0.0000 0.0000 0.0000 (  3381 PWs)   bands (ev):

   -40.1388 -40.0744 -19.2239 -18.8903 -18.8903 -18.8320 -18.8320 -18.8150
     3.7531   7.1409   9.3007  10.3524  10.3524  10.4624  10.7559

          k = 0.0000 0.0000 0.0784 (  3363 PWs)   bands (ev):

   -40.1363 -40.0769 -19.2088 -18.8881 -18.8881 -18.8342 -18.8342 -18.8310
     3.8543   6.9872   9.2704  10.3097  10.3109  10.4005  10.7004

          k = 0.0000 0.0000 0.1568 (  3315 PWs)   bands (ev):

   -40.1293 -40.0839 -19.1657 -18.8818 -18.8818 -18.8765 -18.8405 -18.8405
     4.1513   6.5418   9.2787  10.2158  10.2475  10.2475  10.5658

          k = 0.0000 0.0000 0.2353 (  3320 PWs)   bands (ev):

   -40.1189 -40.0943 -19.1005 -18.9441 -18.8723 -18.8723 -18.8500 -18.8500
     4.6230   5.9066   9.4191   9.9521  10.2355  10.2357  10.4132

          k = 0.0000 0.0000-0.3137 (  3326 PWs)   bands (ev):

   -40.1067 -40.1067 -19.0228 -19.0228 -18.8612 -18.8612 -18.8612 -18.8612
     5.2303   5.2303   9.6653   9.6653  10.2934  10.2934  10.2934

          k = 0.0000 0.0962 0.0000 (  3361 PWs)   bands (ev):

   -40.1354 -40.0730 -19.2150 -18.9086 -18.8964 -18.8510 -18.8345 -18.8186
     3.9044   7.2708   9.1759  10.0832  10.4622  10.6298  10.6928

          k = 0.0000 0.0962 0.0784 (  3360 PWs)   bands (ev):

   -40.1331 -40.0754 -19.2009 -18.9059 -18.8940 -18.8590 -18.8369 -18.8283
     4.0041   7.1168   9.1483  10.0792  10.4074  10.5048  10.6305

          k = 0.0000 0.0962 0.1568 (  3346 PWs)   bands (ev):

   -40.1263 -40.0822 -19.1604 -18.8990 -18.8924 -18.8873 -18.8446 -18.8436
     4.2969   6.6690   9.1710  10.0851  10.2338  10.3342  10.5274

          k = 0.0000 0.0962 0.2353 (  3345 PWs)   bands (ev):

   -40.1162 -40.0924 -19.0993 -18.9537 -18.8868 -18.8773 -18.8588 -18.8537
     4.7624   6.0343   9.3324   9.9189  10.1318  10.3191  10.3810

          k = 0.0000 0.0962-0.3137 (  3338 PWs)   bands (ev):

   -40.1043 -40.1043 -19.0266 -19.0266 -18.8731 -18.8731 -18.8655 -18.8655
     5.3629   5.3629   9.6010   9.6010  10.2323  10.2327  10.3773

          k = 0.0000 0.1925 0.0000 (  3355 PWs)   bands (ev):

   -40.1262 -40.0695 -19.1899 -18.9587 -18.9125 -18.9021 -18.8421 -18.8298
     4.3436   7.6193   8.8903   9.6719  10.4066  10.7800  10.8127

          k = 0.0000 0.1925 0.0784 (  3354 PWs)   bands (ev):

   -40.1240 -40.0717 -19.1788 -18.9546 -18.9117 -18.9098 -18.8447 -18.8362
     4.4385   7.4653   8.8742   9.6913  10.3976  10.5429  10.6296

          k = 0.0000 0.1925 0.1568 (  3354 PWs)   bands (ev):

   -40.1179 -40.0778 -19.1472 -18.9480 -18.9349 -18.9022 -18.8526 -18.8524
     4.7174   7.0142   8.9356   9.7480  10.1725  10.4063  10.5390

          k = 0.0000 0.1925 0.2353 (  3349 PWs)   bands (ev):

   -40.1088 -40.0871 -19.0997 -18.9885 -18.9213 -18.8908 -18.8747 -18.8639
     5.1618   6.3877   9.1374   9.7364   9.9558  10.2581  10.5326

          k = 0.0000 0.1925-0.3137 (  3340 PWs)   bands (ev):

   -40.0979 -40.0979 -19.0438 -19.0438 -18.8987 -18.8987 -18.8774 -18.8774
     5.7377   5.7377   9.4336   9.4337  10.0772  10.0772  10.6038

          k = 0.0000 0.2887 0.0000 (  3328 PWs)   bands (ev):

   -40.1130 -40.0652 -19.1520 -19.0279 -18.9699 -18.9336 -18.8530 -18.8486
     5.0252   8.0263   8.5829   9.2476  10.1872  10.4680  10.5682

          k = 0.0000 0.2887 0.0784 (  3329 PWs)   bands (ev):

   -40.1112 -40.0670 -19.1486 -19.0191 -18.9791 -18.9306 -18.8561 -18.8519
     5.1104   7.8777   8.5940   9.2783  10.1596  10.4081  10.5814

          k = 0.0000 0.2887 0.1568 (  3345 PWs)   bands (ev):

   -40.1060 -40.0722 -19.1368 -19.0150 -18.9842 -18.9219 -18.8649 -18.8635
     5.3609   7.4436   8.7115   9.3547  10.0136  10.2970  10.6308

          k = 0.0000 0.2887 0.2353 (  3344 PWs)   bands (ev):

   -40.0983 -40.0800 -19.1148 -19.0473 -18.9525 -18.9089 -18.8855 -18.8780
     5.7599   6.8657   8.9383   9.3922   9.8548  10.1273  10.7316

          k = 0.0000 0.2887-0.3137 (  3340 PWs)   bands (ev):

   -40.0891 -40.0891 -19.0836 -19.0836 -18.9166 -18.9166 -18.8935 -18.8935
     6.2778   6.2778   9.2106   9.2106   9.9300   9.9300  10.8843

          k = 0.0000 0.3849 0.0000 (  3326 PWs)   bands (ev):

   -40.0988 -40.0619 -19.1076 -19.0976 -19.0356 -18.9542 -18.8738 -18.8645
     5.8647   8.1857   8.3337   8.9127  10.2126  10.2208  10.3561

          k = 0.0000 0.3849 0.0784 (  3331 PWs)   bands (ev):

   -40.0974 -40.0633 -19.1341 -19.0668 -19.0400 -18.9508 -18.8738 -18.8679
     5.9317   8.0440   8.4030   8.9542  10.0679  10.2992  10.4054

          k = 0.0000 0.3849 0.1568 (  3326 PWs)   bands (ev):

   -40.0934 -40.0673 -19.1507 -19.0793 -19.0065 -18.9411 -18.8780 -18.8777
     6.1280   7.7110   8.5641   9.0424   9.9223  10.2490  10.5505

          k = 0.0000 0.3849 0.2353 (  3329 PWs)   bands (ev):

   -40.0874 -40.0733 -19.1511 -19.1098 -18.9607 -18.9267 -18.8929 -18.8923
     6.4386   7.2817   8.7869   9.0960   9.8351  10.0800  10.7806

          k = 0.0000 0.3849-0.3137 (  3338 PWs)   bands (ev):

   -40.0803 -40.0803 -19.1362 -19.1362 -18.9211 -18.9211 -18.9095 -18.9095
     6.8371   6.8371   9.0028   9.0028   9.8966   9.8966  11.0753

          k = 0.0000 0.4811 0.0000 (  3346 PWs)   bands (ev):

   -40.0870 -40.0608 -19.1490 -19.0825 -19.0664 -18.9689 -18.9010 -18.8732
     6.7161   8.0200   8.1767   8.6625  10.0499  10.2147  10.4261

          k = 0.0000 0.4811 0.0784 (  3337 PWs)   bands (ev):

   -40.0860 -40.0618 -19.1631 -19.0964 -19.0416 -18.9653 -18.8975 -18.8768
     6.7478   7.9240   8.2758   8.6930  10.0552  10.2767  10.3798

          k = 0.0000 0.4811 0.1568 (  3338 PWs)   bands (ev):

   -40.0832 -40.0646 -19.1818 -19.1249 -18.9975 -18.9550 -18.8938 -18.8873
     6.8444   7.7283   8.4691   8.7900  10.0420  10.2569  10.4593

          k = 0.0000 0.4811 0.2353 (  3334 PWs)   bands (ev):

   -40.0789 -40.0689 -19.1880 -19.1556 -18.9541 -18.9395 -18.9029 -18.8997
     7.0065   7.4798   8.7000   8.9005   9.9852  10.1067  10.7525

          k = 0.0000 0.4811-0.3137 (  3334 PWs)   bands (ev):

   -40.0739 -40.0739 -19.1786 -19.1786 -18.9212 -18.9212 -18.9199 -18.9199
     7.2260   7.2260   8.8831   8.8831   9.9884   9.9886  11.1366

          k = 0.0000-0.5774 0.0000 (  3326 PWs)   bands (ev):

   -40.0820 -40.0610 -19.1678 -19.0995 -19.0470 -18.9742 -18.9152 -18.8764
     7.2310   7.7841   8.1238   8.5472   9.9891  10.1655  10.5253

          k = 0.0000-0.5774 0.0784 (  3336 PWs)   bands (ev):

   -40.0812 -40.0618 -19.1790 -19.1122 -19.0281 -18.9705 -18.9099 -18.8801
     7.2106   7.7609   8.2346   8.5447  10.0440  10.2308  10.4543

          k = 0.0000-0.5774 0.1568 (  3330 PWs)   bands (ev):

   -40.0789 -40.0641 -19.1961 -19.1413 -18.9888 -18.9600 -18.9020 -18.8908
     7.1956   7.6681   8.4975   8.5961  10.1393  10.2748  10.4239

          k = 0.0000-0.5774 0.2353 (  3338 PWs)   bands (ev):

   -40.0755 -40.0675 -19.2029 -19.1722 -18.9491 -18.9442 -18.9068 -18.9032
     7.2393   7.5115   8.7342   8.7659  10.0919  10.1463  10.7349

          k = 0.0000-0.5774-0.3137 (  3352 PWs)   bands (ev):

   -40.0715 -40.0715 -19.1946 -19.1946 -18.9255 -18.9255 -18.9190 -18.9190
     7.3519   7.3519   8.8518   8.8518  10.0622  10.0624  11.1449

          k = 0.0833 0.1443 0.0000 (  3369 PWs)   bands (ev):

   -40.1292 -40.0706 -19.1980 -18.9393 -18.9155 -18.8791 -18.8421 -18.8261
     4.1999   7.5123   8.9757   9.7837  10.4872  10.6908  10.7616

          k = 0.0833 0.1443 0.0784 (  3357 PWs)   bands (ev):

   -40.1269 -40.0728 -19.1858 -18.9356 -18.9149 -18.8870 -18.8447 -18.8328
     4.2965   7.3580   8.9551   9.7987  10.4957  10.5105  10.5849

          k = 0.0833 0.1443 0.1568 (  3351 PWs)   bands (ev):

   -40.1206 -40.0792 -19.1510 -18.9288 -18.9252 -18.8970 -18.8519 -18.8487
     4.5804   6.9069   9.0039   9.8471  10.1989  10.4350  10.4926

          k = 0.0833 0.1443 0.2353 (  3348 PWs)   bands (ev):

   -40.1111 -40.0887 -19.0987 -18.9761 -18.9095 -18.8903 -18.8673 -18.8626
     5.0323   6.2760   9.1951   9.8125   9.9891  10.2874  10.4784

          k = 0.0833 0.1443-0.3137 (  3340 PWs)   bands (ev):

   -40.0999 -40.0999 -19.0370 -19.0370 -18.8918 -18.8918 -18.8738 -18.8738
     5.6174   5.6174   9.4880   9.4881  10.1178  10.1179  10.5344

          k = 0.0833 0.2406 0.0000 (  3334 PWs)   bands (ev):

   -40.1179 -40.0667 -19.1664 -18.9942 -18.9605 -18.9131 -18.8550 -18.8411
     4.7624   7.9096   8.6973   9.3728  10.2576  10.4655  11.0642

          k = 0.0833 0.2406 0.0784 (  3343 PWs)   bands (ev):

   -40.1160 -40.0686 -19.1592 -18.9883 -18.9645 -18.9163 -18.8581 -18.8445
     4.8520   7.7574   8.6934   9.4005  10.2666  10.3842  10.6785

          k = 0.0833 0.2406 0.1568 (  3347 PWs)   bands (ev):

   -40.1104 -40.0742 -19.1381 -18.9890 -18.9653 -18.9171 -18.8669 -18.8556
     5.1153   7.3079   8.7885   9.4758  10.0877  10.3028  10.6282

          k = 0.0833 0.2406 0.2353 (  3341 PWs)   bands (ev):

   -40.1021 -40.0825 -19.1055 -19.0233 -18.9405 -18.9105 -18.8802 -18.8733
     5.5352   6.7004   9.0114   9.5200   9.8729  10.1427  10.6799

          k = 0.0833 0.2406-0.3137 (  3324 PWs)   bands (ev):

   -40.0923 -40.0923 -19.0652 -19.0652 -18.9143 -18.9143 -18.8873 -18.8873
     6.0807   6.0807   9.3021   9.3022   9.9479   9.9480  10.7858

          k = 0.0833 0.3368 0.0000 (  3331 PWs)   bands (ev):

   -40.1042 -40.0629 -19.1250 -19.0624 -19.0152 -18.9447 -18.8689 -18.8634
     5.5302   8.2281   8.4421   8.9970  10.1537  10.2071  10.5120

          k = 0.0833 0.3368 0.0784 (  3332 PWs)   bands (ev):

   -40.1026 -40.0645 -19.1319 -19.0486 -19.0187 -18.9445 -18.8737 -18.8623
     5.6067   8.0792   8.4845   9.0347  10.0635  10.2734  10.4948

          k = 0.0833 0.3368 0.1568 (  3328 PWs)   bands (ev):

   -40.0981 -40.0689 -19.1373 -19.0541 -18.9983 -18.9398 -18.8843 -18.8662
     5.8311   7.6820   8.6326   9.1248   9.9207  10.2226  10.5649

          k = 0.0833 0.3368 0.2353 (  3338 PWs)   bands (ev):

   -40.0915 -40.0757 -19.1305 -19.0827 -18.9602 -18.9290 -18.8982 -18.8797
     6.1878   7.1700   8.8583   9.1971   9.7867  10.0300  10.7548

          k = 0.0833 0.3368-0.3137 (  3336 PWs)   bands (ev):

   -40.0836 -40.0836 -19.1110 -19.1110 -18.9304 -18.9304 -18.8989 -18.8989
     6.6489   6.6489   9.0946   9.0946   9.8314   9.8315  10.9919

          k = 0.0833 0.4330 0.0000 (  3333 PWs)   bands (ev):

   -40.0910 -40.0609 -19.1227 -19.0810 -19.0630 -18.9691 -18.8908 -18.8808
     6.3941   8.2002   8.2589   8.7325  10.0391  10.2799  10.3234

          k = 0.0833 0.4330 0.0784 (  3332 PWs)   bands (ev):

   -40.0898 -40.0620 -19.1418 -19.0811 -19.0455 -18.9665 -18.8922 -18.8801
     6.4463   8.0677   8.3531   8.7836   9.9877  10.2633  10.3670

          k = 0.0833 0.4330 0.1568 (  3328 PWs)   bands (ev):

   -40.0866 -40.0653 -19.1617 -19.1052 -19.0038 -18.9563 -18.9012 -18.8788
     6.5992   7.8142   8.5222   8.8966   9.8842  10.1562  10.5198

          k = 0.0833 0.4330 0.2353 (  3334 PWs)   bands (ev):

   -40.0817 -40.0702 -19.1672 -19.1342 -18.9675 -18.9380 -18.9142 -18.8856
     6.8409   7.4900   8.7459   8.9904   9.7972   9.9702  10.7708

          k = 0.0833 0.4330-0.3137 (  3344 PWs)   bands (ev):

   -40.0759 -40.0759 -19.1570 -19.1570 -18.9427 -18.9427 -18.9036 -18.9036
     7.1494   7.1494   8.9446   8.9446   9.8145   9.8146  11.0963

          k = 0.0833 0.5292 0.0000 (  3335 PWs)   bands (ev):

   -40.0821 -40.0610 -19.1576 -19.0906 -19.0474 -18.9825 -18.9148 -18.8877
     7.1528   7.9479   8.1654   8.5460   9.9733  10.1239  10.5205

          k = 0.0833 0.5292 0.0784 (  3338 PWs)   bands (ev):

   -40.0813 -40.0618 -19.1688 -19.1038 -19.0300 -18.9770 -18.9119 -18.8889
     7.1576   7.8963   8.2674   8.5681   9.9887  10.1310  10.5074

          k = 0.0833 0.5292 0.1568 (  3337 PWs)   bands (ev):

   -40.0790 -40.0641 -19.1859 -19.1329 -18.9991 -18.9589 -18.9148 -18.8883
     7.1895   7.7709   8.4864   8.6734   9.9891  10.0694  10.5801

          k = 0.0833 0.5292 0.2353 (  3337 PWs)   bands (ev):

   -40.0756 -40.0675 -19.1929 -19.1632 -18.9729 -18.9342 -18.9256 -18.8903
     7.2736   7.5947   8.7248   8.8479   9.8829   9.9543  10.8234

          k = 0.0833 0.5292-0.3137 (  3338 PWs)   bands (ev):

   -40.0715 -40.0715 -19.1850 -19.1850 -18.9504 -18.9504 -18.9040 -18.9040
     7.4152   7.4152   8.8931   8.8931   9.8461   9.8462  11.1734

          k = 0.1667 0.2887 0.0000 (  3336 PWs)   bands (ev):

   -40.1061 -40.0633 -19.1311 -19.0323 -19.0246 -18.9333 -18.8786 -18.8600
     5.4165   8.2647   8.4969   9.0012  10.1440  10.1627  10.6007

          k = 0.1667 0.2887 0.0784 (  3342 PWs)   bands (ev):

   -40.1045 -40.0650 -19.1329 -19.0288 -19.0191 -18.9385 -18.8817 -18.8593
     5.4962   8.1109   8.5269   9.0348  10.1124  10.1932  10.5461

          k = 0.1667 0.2887 0.1568 (  3339 PWs)   bands (ev):

   -40.0998 -40.0696 -19.1319 -19.0442 -18.9879 -18.9442 -18.8897 -18.8627
     5.7303   7.6835   8.6691   9.1277   9.9627  10.1839  10.5380

          k = 0.1667 0.2887 0.2353 (  3331 PWs)   bands (ev):

   -40.0929 -40.0765 -19.1208 -19.0706 -18.9536 -18.9411 -18.8991 -18.8759
     6.1032   7.1372   8.8969   9.2254   9.7798   9.9889  10.7120

          k = 0.1667 0.2887-0.3137 (  3332 PWs)   bands (ev):

   -40.0847 -40.0847 -19.0989 -19.0989 -18.9365 -18.9365 -18.8952 -18.8952
     6.5870   6.5870   9.1405   9.1405   9.7880   9.7880  10.9355

          k = 0.1667 0.3849 0.0000 (  3342 PWs)   bands (ev):

   -40.0932 -40.0610 -19.0889 -19.0881 -19.0591 -18.9658 -18.9011 -18.8856
     6.2281   8.3455   8.4208   8.7017   9.9501  10.2305  10.3591

          k = 0.1667 0.3849 0.0784 (  3328 PWs)   bands (ev):

   -40.0919 -40.0623 -19.1185 -19.0791 -19.0353 -18.9705 -18.9053 -18.8798
     6.2914   8.2265   8.4805   8.7471   9.9140  10.2543  10.3089

          k = 0.1667 0.3849 0.1568 (  3337 PWs)   bands (ev):

   -40.0885 -40.0658 -19.1389 -19.0930 -18.9969 -18.9714 -18.9138 -18.8741
     6.4763   7.9380   8.6255   8.8560   9.8182  10.0754  10.4344

          k = 0.1667 0.3849 0.2353 (  3338 PWs)   bands (ev):

   -40.0833 -40.0710 -19.1445 -19.1154 -18.9761 -18.9573 -18.9157 -18.8791
     6.7683   7.5508   8.8276   8.9817   9.6898   9.8324  10.6675

          k = 0.1667 0.3849-0.3137 (  3332 PWs)   bands (ev):

   -40.0771 -40.0771 -19.1353 -19.1353 -18.9623 -18.9623 -18.8964 -18.8964
     7.1405   7.1405   8.9965   8.9965   9.6590   9.6590  10.9765

          k = 0.1667 0.4811 0.0000 (  3339 PWs)   bands (ev):

   -40.0822 -40.0609 -19.1311 -19.0754 -19.0480 -18.9972 -18.9161 -18.9142
     7.0545   8.2473   8.2583   8.5345   9.8666  10.1087  10.4885

          k = 0.1667 0.4811 0.0784 (  3334 PWs)   bands (ev):

   -40.0813 -40.0617 -19.1416 -19.0920 -19.0301 -18.9918 -18.9252 -18.9011
     7.0898   8.1467   8.3495   8.6060   9.8389  10.0456  10.5069

          k = 0.1667 0.4811 0.1568 (  3335 PWs)   bands (ev):

   -40.0790 -40.0640 -19.1593 -19.1175 -19.0161 -18.9670 -18.9338 -18.8874
     7.1934   7.9895   8.5114   8.7665   9.7496   9.8712  10.5946

          k = 0.1667 0.4811 0.2353 (  3335 PWs)   bands (ev):

   -40.0756 -40.0675 -19.1681 -19.1439 -19.0014 -18.9648 -18.9186 -18.8838
     7.3572   7.7868   8.7400   8.9352   9.6204   9.6397  10.7820

          k = 0.1667 0.4811-0.3137 (  3334 PWs)   bands (ev):

   -40.0715 -40.0715 -19.1626 -19.1626 -18.9827 -18.9827 -18.8948 -18.8948
     7.5644   7.5644   8.9488   8.9488   9.5258   9.5258  11.0665

          k = 0.1667 0.5774 0.0000 (  3320 PWs)   bands (ev):

   -40.0772 -40.0618 -19.1466 -19.0797 -19.0273 -19.0106 -18.9305 -18.9215
     7.5576   8.0303   8.2308   8.4396   9.9105   9.9424  10.6165

          k = 0.1667 0.5774 0.0784 (  3332 PWs)   bands (ev):

   -40.0766 -40.0624 -19.1550 -19.0935 -19.0326 -18.9872 -18.9371 -18.9105
     7.5496   8.0173   8.3224   8.4719   9.8740   9.9069  10.6296

          k = 0.1667 0.5774 0.1568 (  3334 PWs)   bands (ev):

   -40.0749 -40.0640 -19.1702 -19.1234 -19.0267 -18.9503 -18.9501 -18.8943
     7.5563   7.9555   8.5533   8.5924   9.7672   9.7746  10.7074

          k = 0.1667 0.5774 0.2353 (  3339 PWs)   bands (ev):

   -40.0724 -40.0665 -19.1782 -19.1530 -19.0110 -18.9690 -18.9164 -18.8868
     7.6110   7.8419   8.7995   8.8363   9.5557   9.5950  10.8859

          k = 0.1667 0.5774-0.3137 (  3336 PWs)   bands (ev):

   -40.0695 -40.0695 -19.1727 -19.1727 -18.9904 -18.9904 -18.8939 -18.8939
     7.7141   7.7141   8.9791   8.9791   9.4334   9.4334  11.1554

          k = 0.2500 0.4330 0.0000 (  3348 PWs)   bands (ev):

   -40.0822 -40.0609 -19.1083 -19.0786 -19.0484 -18.9966 -18.9371 -18.9139
     7.0187   8.3111   8.4428   8.4835   9.7907  10.1186  10.4551

          k = 0.2500 0.4330 0.0784 (  3335 PWs)   bands (ev):

   -40.0814 -40.0617 -19.1104 -19.1067 -19.0161 -19.0068 -18.9394 -18.9032
     7.0656   8.2491   8.4800   8.5596   9.7746  10.0143  10.4654

          k = 0.2500 0.4330 0.1568 (  3332 PWs)   bands (ev):

   -40.0791 -40.0640 -19.1351 -19.1196 -19.0179 -18.9830 -18.9389 -18.8874
     7.2008   8.1112   8.5895   8.7180   9.7081   9.7710  10.5224

          k = 0.2500 0.4330 0.2353 (  3340 PWs)   bands (ev):

   -40.0756 -40.0675 -19.1495 -19.1358 -19.0141 -18.9841 -18.9157 -18.8821
     7.4078   7.9066   8.7596   8.8944   9.5134   9.5718  10.6817

          k = 0.2500 0.4330-0.3137 (  3344 PWs)   bands (ev):

   -40.0715 -40.0715 -19.1486 -19.1486 -18.9998 -18.9998 -18.8921 -18.8921
     7.6571   7.6571   8.9277   8.9277   9.4316   9.4316  10.9669

          k = 0.2500 0.5292 0.0000 (  3334 PWs)   bands (ev):

   -40.0738 -40.0628 -19.1235 -19.0674 -19.0313 -19.0121 -18.9598 -18.9430
     7.7104   8.2603   8.3132   8.3780   9.7648   9.8930  10.6793

          k = 0.2500 0.5292 0.0784 (  3339 PWs)   bands (ev):

   -40.0734 -40.0633 -19.1266 -19.0863 -19.0467 -18.9868 -18.9640 -18.9264
     7.7387   8.2332   8.3456   8.4667   9.7244   9.7978  10.6834

          k = 0.2500 0.5292 0.1568 (  3337 PWs)   bands (ev):

   -40.0722 -40.0644 -19.1389 -19.1134 -19.0564 -18.9859 -18.9392 -18.9021
     7.8169   8.1898   8.4694   8.6499   9.5482   9.6104  10.7188

          k = 0.2500 0.5292 0.2353 (  3342 PWs)   bands (ev):

   -40.0704 -40.0662 -19.1513 -19.1375 -19.0464 -19.0047 -18.9076 -18.8877
     7.9261   8.1300   8.6737   8.8876   9.2482   9.4073  10.8329

          k = 0.2500 0.5292-0.3137 (  3336 PWs)   bands (ev):

   -40.0683 -40.0683 -19.1515 -19.1515 -19.0266 -19.0266 -18.8892 -18.8892
     8.0393   8.0393   8.9389   8.9389   9.1571   9.1571  11.0626

          k = 0.3333 0.5774 0.0000 (  3360 PWs)   bands (ev):

   -40.0672 -40.0672 -19.1141 -19.0526 -19.0526 -18.9855 -18.9763 -18.9763
     8.1594   8.1594   8.2629   8.3495   9.7615   9.7615  10.7739

          k = 0.3333 0.5774 0.0784 (  3339 PWs)   bands (ev):

   -40.0671 -40.0671 -19.1092 -19.0741 -19.0741 -18.9905 -18.9545 -18.9545
     8.2052   8.2052   8.2819   8.3682   9.6839   9.6840  10.7727

          k = 0.3333 0.5774 0.1568 (  3330 PWs)   bands (ev):

   -40.0671 -40.0671 -19.1073 -19.1073 -19.0954 -19.0045 -18.9207 -18.9207
     8.3323   8.3357   8.3357   8.4109   9.4834   9.4834  10.7896

          k = 0.3333 0.5774 0.2353 (  3327 PWs)   bands (ev):

   -40.0671 -40.0671 -19.1313 -19.1313 -19.0747 -19.0255 -18.8961 -18.8961
     8.3947   8.4450   8.5237   8.5237   9.2332   9.2332  10.8762

          k = 0.3333 0.5774-0.3137 (  3336 PWs)   bands (ev):

   -40.0671 -40.0671 -19.1399 -19.1399 -19.0502 -19.0502 -18.8873 -18.8873
     8.4403   8.4403   8.6545   8.6545   9.0785   9.0785  11.0805

     the Fermi energy is     8.8160 ev

!    total energy              =    -306.87248419 Ry
     total all-electron energy =     -3050.013255 Ry
     estimated scf accuracy    <          7.7E-09 Ry
     smearing contrib. (-TS)   =      -0.00103941 Ry
     internal energy E=F+TS    =    -306.87144478 Ry

     The total energy is F=E-TS. E is the sum of the following terms:
     one-electron contribution =     -74.40462700 Ry
     hartree contribution      =      42.28384420 Ry
     xc contribution           =     -34.52757843 Ry
     ewald contribution        =    -126.46581261 Ry
     one-center paw contrib.   =    -113.75727094 Ry

     convergence has been achieved in   9 iterations

     Forces acting on atoms (cartesian axes, Ry/au):

     atom    1 type  1   force =    -0.00000000   -0.00000000    0.00000000
     atom    2 type  1   force =     0.00000000    0.00000000    0.00000000
     The non-local contrib.  to forces
     atom    1 type  1   force =     0.00000000   -0.00000000    0.00000000
     atom    2 type  1   force =    -0.00000000    0.00000000    0.00000000
     The ionic contribution  to forces
     atom    1 type  1   force =     0.00000000   -0.00000000    0.00000000
     atom    2 type  1   force =    -0.00000000    0.00000000    0.00000000
     The local contribution  to forces
     atom    1 type  1   force =     0.00000000    0.00000000    0.00000000
     atom    2 type  1   force =    -0.00000000    0.00000000    0.00000000
     The core correction contribution to forces
     atom    1 type  1   force =     0.00000000   -0.00000000    0.00000000
     atom    2 type  1   force =     0.00000000   -0.00000000    0.00000000
     The Hubbard contrib.    to forces
     atom    1 type  1   force =     0.00000000    0.00000000    0.00000000
     atom    2 type  1   force =     0.00000000    0.00000000    0.00000000
     The SCF correction term to forces
     atom    1 type  1   force =    -0.00000000    0.00000000    0.00000000
     atom    2 type  1   force =     0.00000000   -0.00000000   -0.00000000

     Total force =     0.000000     Total SCF correction =     0.000000


     Computing stress (Cartesian axis) and pressure

          total   stress  (Ry/bohr**3)                   (kbar)     P=      -57.70
  -0.00035205  -0.00000000   0.00000000          -51.79       -0.00        0.00
  -0.00000000  -0.00035205  -0.00000000           -0.00      -51.79       -0.00
   0.00000000  -0.00000000  -0.00047259            0.00       -0.00      -69.52


     BFGS Geometry Optimization
     Energy error            =      0.0E+00 Ry
     Gradient error          =      1.6E-27 Ry/Bohr
     Cell gradient error     =      7.0E+01 kbar

     number of scf cycles    =   1
     number of bfgs steps    =   0

     enthalpy           new  =    -306.8724841852 Ry

     new trust radius        =       0.0434121238 bohr
     new conv_thr            =       0.0000000100 Ry

     new unit-cell volume =    327.69187 a.u.^3 (    48.55893 Ang^3 )
     density =      3.05004 g/cm^3

CELL_PARAMETERS (alat=  6.25310370)
   0.991198767  -0.000000000   0.000000000
  -0.495599383   0.858403312  -0.000000000
   0.000000000  -0.000000000   1.575167133

ATOMIC_POSITIONS (crystal)
Sc           -0.0000000000       -0.0000000000        0.0000000000
Sc            0.6666666667        0.3333333333        0.5000000000



     Writing config-only to output data dir sc_vcrelax.out/scandium.save/
     NEW-OLD atomic charge density approx. for the potential

     Check: negative core charge=   -0.000034
     extrapolated charge   21.33998, renormalised to   22.00000

     total cpu time spent up to now is      256.6 secs

     Self-consistent Calculation

     iteration #  1     ecut=    70.00 Ry     beta= 0.70
     Davidson diagonalization with overlap
     c_bands:  1 eigenvalues not converged
     c_bands:  1 eigenvalues not converged
     c_bands:  1 eigenvalues not converged
     c_bands:  1 eigenvalues not converged
     c_bands:  1 eigenvalues not converged
     c_bands:  3 eigenvalues not converged
     c_bands:  1 eigenvalues not converged
     c_bands:  4 eigenvalues not converged
     c_bands:  2 eigenvalues not converged
     c_bands:  4 eigenvalues not converged
     c_bands:  3 eigenvalues not converged
     c_bands:  4 eigenvalues not converged
     c_bands:  1 eigenvalues not converged
     c_bands:  4 eigenvalues not converged
     c_bands:  1 eigenvalues not converged
     c_bands:  4 eigenvalues not converged
     c_bands:  2 eigenvalues not converged
     c_bands:  4 eigenvalues not converged
     c_bands:  1 eigenvalues not converged
     c_bands:  1 eigenvalues not converged
     c_bands:  2 eigenvalues not converged
     c_bands:  2 eigenvalues not converged
     c_bands:  1 eigenvalues not converged
     c_bands:  1 eigenvalues not converged
     c_bands:  1 eigenvalues not converged
     c_bands:  1 eigenvalues not converged
     c_bands:  3 eigenvalues not converged
     c_bands:  4 eigenvalues not converged
     c_bands:  3 eigenvalues not converged
     c_bands:  3 eigenvalues not converged
     c_bands:  1 eigenvalues not converged
     c_bands:  3 eigenvalues not converged
     c_bands:  5 eigenvalues not converged
     c_bands:  1 eigenvalues not converged
     c_bands:  5 eigenvalues not converged
     c_bands:  5 eigenvalues not converged
     c_bands:  2 eigenvalues not converged
     c_bands:  2 eigenvalues not converged
     c_bands:  2 eigenvalues not converged
     c_bands:  3 eigenvalues not converged
     c_bands:  3 eigenvalues not converged
     c_bands:  1 eigenvalues not converged
     c_bands:  2 eigenvalues not converged
     c_bands:  2 eigenvalues not converged
     c_bands:  4 eigenvalues not converged
     c_bands:  2 eigenvalues not converged
     c_bands:  2 eigenvalues not converged
     c_bands:  2 eigenvalues not converged
     c_bands:  1 eigenvalues not converged
     c_bands:  5 eigenvalues not converged
     c_bands:  4 eigenvalues not converged
     c_bands:  2 eigenvalues not converged
     c_bands:  2 eigenvalues not converged
     c_bands:  2 eigenvalues not converged
     c_bands:  2 eigenvalues not converged
     c_bands:  2 eigenvalues not converged
     c_bands:  1 eigenvalues not converged
     c_bands:  3 eigenvalues not converged
     c_bands:  3 eigenvalues not converged
     c_bands:  3 eigenvalues not converged
     c_bands:  1 eigenvalues not converged
     c_bands:  2 eigenvalues not converged
     c_bands:  1 eigenvalues not converged
     ethr =  1.00E-06,  avg # of iterations = 19.9

     total cpu time spent up to now is      310.0 secs

     total energy              =    -306.75237047 Ry
     estimated scf accuracy    <       0.08923291 Ry

     iteration #  2     ecut=    70.00 Ry     beta= 0.70
     Davidson diagonalization with overlap
     ethr =  4.06E-04,  avg # of iterations =  7.3

     total cpu time spent up to now is      332.9 secs

     total energy              =    -306.87908468 Ry
     estimated scf accuracy    <       0.15078099 Ry

     iteration #  3     ecut=    70.00 Ry     beta= 0.70
     Davidson diagonalization with overlap
     ethr =  4.06E-04,  avg # of iterations =  1.3

     total cpu time spent up to now is      343.3 secs

     total energy              =    -306.87419260 Ry
     estimated scf accuracy    <       0.04521502 Ry

     iteration #  4     ecut=    70.00 Ry     beta= 0.70
     Davidson diagonalization with overlap
     ethr =  2.06E-04,  avg # of iterations =  2.3

     total cpu time spent up to now is      355.2 secs

     total energy              =    -306.87316879 Ry
     estimated scf accuracy    <       0.02000118 Ry

     iteration #  5     ecut=    70.00 Ry     beta= 0.70
     Davidson diagonalization with overlap
     ethr =  9.09E-05,  avg # of iterations =  2.3

     total cpu time spent up to now is      366.7 secs

     total energy              =    -306.87500721 Ry
     estimated scf accuracy    <       0.00967335 Ry

     iteration #  6     ecut=    70.00 Ry     beta= 0.70
     Davidson diagonalization with overlap
     ethr =  4.40E-05,  avg # of iterations =  3.8

     total cpu time spent up to now is      379.0 secs

     total energy              =    -306.87714865 Ry
     estimated scf accuracy    <       0.00722946 Ry

     iteration #  7     ecut=    70.00 Ry     beta= 0.70
     Davidson diagonalization with overlap
     ethr =  3.29E-05,  avg # of iterations =  2.2

     total cpu time spent up to now is      390.3 secs

     total energy              =    -306.88001891 Ry
     estimated scf accuracy    <       0.00741096 Ry

     iteration #  8     ecut=    70.00 Ry     beta= 0.70
     Davidson diagonalization with overlap
     ethr =  3.29E-05,  avg # of iterations =  1.2

     total cpu time spent up to now is      400.7 secs

     total energy              =    -306.87668387 Ry
     estimated scf accuracy    <       0.01147580 Ry

     iteration #  9     ecut=    70.00 Ry     beta= 0.70
     Davidson diagonalization with overlap
     ethr =  3.29E-05,  avg # of iterations =  1.2

     total cpu time spent up to now is      411.1 secs

     total energy              =    -306.87527568 Ry
     estimated scf accuracy    <       0.00567450 Ry

     iteration # 10     ecut=    70.00 Ry     beta= 0.70
     Davidson diagonalization with overlap
     ethr =  2.58E-05,  avg # of iterations =  2.6

     total cpu time spent up to now is      422.6 secs

     total energy              =    -306.87489978 Ry
     estimated scf accuracy    <       0.00217655 Ry

     iteration # 11     ecut=    70.00 Ry     beta= 0.70
     Davidson diagonalization with overlap
     ethr =  9.89E-06,  avg # of iterations = 11.0

     total cpu time spent up to now is      454.0 secs

     total energy              =    -306.88539107 Ry
     estimated scf accuracy    <       0.02262370 Ry

     iteration # 12     ecut=    70.00 Ry     beta= 0.70
     Davidson diagonalization with overlap
     ethr =  9.89E-06,  avg # of iterations =  1.3

     total cpu time spent up to now is      464.5 secs

     total energy              =    -306.88739222 Ry
     estimated scf accuracy    <       0.02356518 Ry

     iteration # 13     ecut=    70.00 Ry     beta= 0.70
     Davidson diagonalization with overlap
     ethr =  9.89E-06,  avg # of iterations =  1.5

     total cpu time spent up to now is      475.2 secs

     total energy              =    -306.89268597 Ry
     estimated scf accuracy    <       0.02749770 Ry

     iteration # 14     ecut=    70.00 Ry     beta= 0.70
     Davidson diagonalization with overlap
     ethr =  9.89E-06,  avg # of iterations =  4.5

     total cpu time spent up to now is      488.1 secs

     total energy              =    -306.87032784 Ry
     estimated scf accuracy    <       0.04165056 Ry

     iteration # 15     ecut=    70.00 Ry     beta= 0.70
     Davidson diagonalization with overlap
     ethr =  9.89E-06,  avg # of iterations =  8.6

     total cpu time spent up to now is      512.4 secs

     total energy              =    -306.87487457 Ry
     estimated scf accuracy    <       0.00153391 Ry

     iteration # 16     ecut=    70.00 Ry     beta= 0.70
     Davidson diagonalization with overlap
     ethr =  6.97E-06,  avg # of iterations =  7.3

     total cpu time spent up to now is      533.0 secs

     total energy              =    -306.87663744 Ry
     estimated scf accuracy    <       0.00107767 Ry

     iteration # 17     ecut=    70.00 Ry     beta= 0.70
     Davidson diagonalization with overlap
     ethr =  4.90E-06,  avg # of iterations =  3.5

     total cpu time spent up to now is      545.2 secs

     total energy              =    -306.87592455 Ry
     estimated scf accuracy    <       0.00175115 Ry

     iteration # 18     ecut=    70.00 Ry     beta= 0.70
     Davidson diagonalization with overlap
     ethr =  4.90E-06,  avg # of iterations =  1.4

     total cpu time spent up to now is      555.8 secs

     total energy              =    -306.87575524 Ry
     estimated scf accuracy    <       0.00046820 Ry

     iteration # 19     ecut=    70.00 Ry     beta= 0.70
     Davidson diagonalization with overlap
     ethr =  2.13E-06,  avg # of iterations =  5.0

     total cpu time spent up to now is      571.0 secs

     total energy              =    -306.87591829 Ry
     estimated scf accuracy    <       0.00000609 Ry

     iteration # 20     ecut=    70.00 Ry     beta= 0.70
     Davidson diagonalization with overlap
     c_bands:  1 eigenvalues not converged
     c_bands:  1 eigenvalues not converged
     ethr =  2.77E-08,  avg # of iterations = 12.9

     total cpu time spent up to now is      603.5 secs

     total energy              =    -306.87595294 Ry
     estimated scf accuracy    <       0.00000875 Ry

     iteration # 21     ecut=    70.00 Ry     beta= 0.70
     Davidson diagonalization with overlap
     c_bands:  1 eigenvalues not converged
     ethr =  2.77E-08,  avg # of iterations =  2.1

     total cpu time spent up to now is      614.6 secs

     total energy              =    -306.87596028 Ry
     estimated scf accuracy    <       0.00000335 Ry

     iteration # 22     ecut=    70.00 Ry     beta= 0.70
     Davidson diagonalization with overlap
     ethr =  1.52E-08,  avg # of iterations =  7.0

     total cpu time spent up to now is      633.1 secs

     total energy              =    -306.87594525 Ry
     estimated scf accuracy    <       0.00003126 Ry

     iteration # 23     ecut=    70.00 Ry     beta= 0.70
     Davidson diagonalization with overlap
     ethr =  1.52E-08,  avg # of iterations =  8.1

     total cpu time spent up to now is      652.6 secs

     total energy              =    -306.87597981 Ry
     estimated scf accuracy    <       0.00000297 Ry

     iteration # 24     ecut=    70.00 Ry     beta= 0.70
     Davidson diagonalization with overlap
     ethr =  1.35E-08,  avg # of iterations = 11.1

     total cpu time spent up to now is      677.1 secs

     total energy              =    -306.87598036 Ry
     estimated scf accuracy    <       0.00012577 Ry

     iteration # 25     ecut=    70.00 Ry     beta= 0.70
     Davidson diagonalization with overlap
     ethr =  1.35E-08,  avg # of iterations =  4.5

     total cpu time spent up to now is      692.3 secs

     total energy              =    -306.87596353 Ry
     estimated scf accuracy    <       0.00007993 Ry

     iteration # 26     ecut=    70.00 Ry     beta= 0.70
     Davidson diagonalization with overlap
     ethr =  1.35E-08,  avg # of iterations =  6.5

     total cpu time spent up to now is      709.9 secs

     total energy              =    -306.87594187 Ry
     estimated scf accuracy    <       0.00003605 Ry

     iteration # 27     ecut=    70.00 Ry     beta= 0.70
     Davidson diagonalization with overlap
     ethr =  1.35E-08,  avg # of iterations =  8.5

     total cpu time spent up to now is      730.0 secs

     total energy              =    -306.87595312 Ry
     estimated scf accuracy    <       0.00000084 Ry

     iteration # 28     ecut=    70.00 Ry     beta= 0.70
     Davidson diagonalization with overlap
     ethr =  3.82E-09,  avg # of iterations =  3.3

     total cpu time spent up to now is      742.3 secs

     total energy              =    -306.87595270 Ry
     estimated scf accuracy    <       0.00000087 Ry

     iteration # 29     ecut=    70.00 Ry     beta= 0.70
     Davidson diagonalization with overlap
     ethr =  3.82E-09,  avg # of iterations =  2.2

     total cpu time spent up to now is      754.8 secs

     total energy              =    -306.87595279 Ry
     estimated scf accuracy    <       0.00000006 Ry

     iteration # 30     ecut=    70.00 Ry     beta= 0.70
     Davidson diagonalization with overlap
     ethr =  2.61E-10,  avg # of iterations =  9.4

     total cpu time spent up to now is      777.3 secs

     total energy              =    -306.87595291 Ry
     estimated scf accuracy    <       0.00000005 Ry

     iteration # 31     ecut=    70.00 Ry     beta= 0.70
     Davidson diagonalization with overlap
     ethr =  2.28E-10,  avg # of iterations =  1.5

     total cpu time spent up to now is      788.0 secs

     total energy              =    -306.87595290 Ry
     estimated scf accuracy    <       0.00000002 Ry

     iteration # 32     ecut=    70.00 Ry     beta= 0.70
     Davidson diagonalization with overlap
     ethr =  8.92E-11,  avg # of iterations =  5.2

     total cpu time spent up to now is      801.0 secs

     End of self-consistent calculation

          k = 0.0000 0.0000 0.0000 (  3381 PWs)   bands (ev):

   -39.7298 -39.6559 -18.8418 -18.4714 -18.4714 -18.4063 -18.4063 -18.3868
     4.0337   7.4442   9.7154  10.7216  10.7216  10.8564  11.1474

          k =-0.0000 0.0000 0.0794 (  3363 PWs)   bands (ev):

   -39.7270 -39.6587 -18.8251 -18.4689 -18.4689 -18.4087 -18.4087 -18.4048
     4.1381   7.2997   9.6706  10.6758  10.6763  10.7897  11.0882

          k =-0.0000 0.0000 0.1587 (  3315 PWs)   bands (ev):

   -39.7190 -39.6668 -18.7772 -18.4618 -18.4618 -18.4555 -18.4158 -18.4158
     4.4441   6.8688   9.6533  10.5976  10.6094  10.6094  10.9452

          k =-0.0000 0.0000 0.2381 (  3320 PWs)   bands (ev):

   -39.7071 -39.6788 -18.7048 -18.5308 -18.4513 -18.4513 -18.4264 -18.4264
     4.9288   6.2358   9.7805  10.3236  10.5964  10.5966  10.7838

          k = 0.0000-0.0000-0.3174 (  3326 PWs)   bands (ev):

   -39.6930 -39.6930 -18.6184 -18.6184 -18.4389 -18.4389 -18.4389 -18.4389
     5.5500   5.5500  10.0276  10.0276  10.6574  10.6574  10.6574

          k = 0.0000 0.0971 0.0000 (  3361 PWs)   bands (ev):

   -39.7261 -39.6544 -18.8320 -18.4914 -18.4781 -18.4272 -18.4090 -18.3910
     4.1887   7.5767   9.5787  10.4441  10.8353  11.0220  11.0874

          k = 0.0000 0.0971 0.0794 (  3360 PWs)   bands (ev):

   -39.7233 -39.6571 -18.8163 -18.4885 -18.4754 -18.4362 -18.4117 -18.4017
     4.2915   7.4323   9.5365  10.4394  10.7766  10.8937  11.0175

          k = 0.0000 0.0971 0.1587 (  3346 PWs)   bands (ev):

   -39.7156 -39.6649 -18.7713 -18.4807 -18.4733 -18.4680 -18.4199 -18.4192
     4.5930   6.9993   9.5344  10.4446  10.6108  10.6987  10.9091

          k = 0.0000 0.0971 0.2381 (  3345 PWs)   bands (ev):

   -39.7040 -39.6766 -18.7035 -18.5416 -18.4670 -18.4568 -18.4358 -18.4304
     5.0711   6.3662   9.6843  10.2841  10.4925  10.6827  10.7537

          k = 0.0000 0.0971-0.3174 (  3338 PWs)   bands (ev):

   -39.6903 -39.6903 -18.6228 -18.6228 -18.4518 -18.4518 -18.4436 -18.4436
     5.6852   5.6852   9.9559   9.9559  10.5981  10.5984  10.7440

          k = 0.0000 0.1942 0.0000 (  3355 PWs)   bands (ev):

   -39.7156 -39.6505 -18.8041 -18.5465 -18.4958 -18.4834 -18.4171 -18.4035
     4.6381   7.9306   9.2662  10.0153  10.7889  11.1646  11.1913

          k = 0.0000 0.1942 0.0794 (  3354 PWs)   bands (ev):

   -39.7131 -39.6530 -18.7918 -18.5419 -18.4941 -18.4928 -18.4201 -18.4104
     4.7357   7.7881   9.2351  10.0352  10.7796  10.9263  11.0032

          k = 0.0000 0.1942 0.1587 (  3354 PWs)   bands (ev):

   -39.7061 -39.6601 -18.7568 -18.5349 -18.5200 -18.4843 -18.4287 -18.4284
     5.0222   7.3518   9.2754  10.0933  10.5449  10.7901  10.9087

          k = 0.0000 0.1942 0.2381 (  3349 PWs)   bands (ev):

   -39.6956 -39.6707 -18.7041 -18.5804 -18.5047 -18.4716 -18.4528 -18.4415
     5.4776   6.7253   9.4718  10.0818  10.3209  10.6343  10.9026

          k = 0.0000 0.1942-0.3174 (  3340 PWs)   bands (ev):

   -39.6831 -39.6831 -18.6420 -18.6420 -18.4794 -18.4794 -18.4566 -18.4566
     6.0658   6.0658   9.7738   9.7738  10.4442  10.4442  10.9781

          k = 0.0000 0.2912 0.0000 (  3328 PWs)   bands (ev):

   -39.7007 -39.6457 -18.7621 -18.6225 -18.5577 -18.5191 -18.4289 -18.4245
     5.3333   8.3387   8.9292   9.5789  10.5672  10.8483  10.9367

          k = 0.0000 0.2912 0.0794 (  3329 PWs)   bands (ev):

   -39.6986 -39.6478 -18.7582 -18.6128 -18.5680 -18.5157 -18.4324 -18.4279
     5.4204   8.2048   8.9256   9.6108  10.5347  10.7915  10.9504

          k = 0.0000 0.2912 0.1587 (  3345 PWs)   bands (ev):

   -39.6927 -39.6538 -18.7451 -18.6087 -18.5737 -18.5060 -18.4422 -18.4404
     5.6760   7.7836   9.0310   9.6900  10.3795  10.6812  11.0022

          k = 0.0000 0.2912 0.2381 (  3344 PWs)   bands (ev):

   -39.6838 -39.6627 -18.7206 -18.6451 -18.5386 -18.4914 -18.4645 -18.4569
     6.0828   7.2043   9.2607   9.7286  10.2161  10.5034  11.1079

          k = 0.0000 0.2912-0.3174 (  3340 PWs)   bands (ev):

   -39.6733 -39.6733 -18.6857 -18.6857 -18.4988 -18.4988 -18.4742 -18.4742
     6.6092   6.6092   9.5414   9.5414  10.2958  10.2959  11.2683

          k = 0.0000 0.3883 0.0000 (  3326 PWs)   bands (ev):

   -39.6846 -39.6421 -18.7128 -18.6992 -18.6295 -18.5416 -18.4526 -18.4413
     6.1846   8.4865   8.6544   9.2458  10.5996  10.6010  10.7162

          k = 0.0000 0.3883 0.0794 (  3331 PWs)   bands (ev):

   -39.6830 -39.6438 -18.7412 -18.6656 -18.6349 -18.5379 -18.4524 -18.4452
     6.2519   8.3591   8.7129   9.2884  10.4434  10.6880  10.7677

          k = 0.0000 0.3883 0.1587 (  3326 PWs)   bands (ev):

   -39.6784 -39.6484 -18.7596 -18.6793 -18.5985 -18.5271 -18.4565 -18.4561
     6.4489   8.0335   8.8750   9.3795  10.2910  10.6361  10.9193

          k = 0.0000 0.3883 0.2381 (  3329 PWs)   bands (ev):

   -39.6715 -39.6553 -18.7600 -18.7136 -18.5476 -18.5109 -18.4727 -18.4725
     6.7607   7.6057   9.1073   9.4343  10.2008  10.4592  11.1596

          k = 0.0000 0.3883-0.3174 (  3338 PWs)   bands (ev):

   -39.6634 -39.6634 -18.7432 -18.7432 -18.5037 -18.5037 -18.4917 -18.4917
     7.1604   7.1604   9.3346   9.3346  10.2666  10.2666  11.4676

          k = 0.0000 0.4854 0.0000 (  3346 PWs)   bands (ev):

   -39.6712 -39.6411 -18.7556 -18.6808 -18.6669 -18.5578 -18.4830 -18.4507
     7.0392   8.3129   8.4799   9.0039  10.4312  10.5694  10.8220

          k = 0.0000 0.4854 0.0794 (  3337 PWs)   bands (ev):

   -39.6700 -39.6422 -18.7718 -18.6968 -18.6385 -18.5538 -18.4788 -18.4548
     7.0678   8.2228   8.5808   9.0311  10.4395  10.6342  10.7731

          k = 0.0000 0.4854 0.1587 (  3338 PWs)   bands (ev):

   -39.6668 -39.6455 -18.7930 -18.7290 -18.5891 -18.5422 -18.4741 -18.4665
     7.1576   8.0319   8.7829   9.1277  10.4291  10.6460  10.8250

          k = 0.0000 0.4854 0.2381 (  3334 PWs)   bands (ev):

   -39.6619 -39.6504 -18.8001 -18.7636 -18.5405 -18.5250 -18.4840 -18.4802
     7.3133   7.7836   9.0253   9.2429  10.3673  10.4959  11.1314

          k = 0.0000 0.4854-0.3174 (  3334 PWs)   bands (ev):

   -39.6561 -39.6561 -18.7895 -18.7895 -18.5045 -18.5045 -18.5025 -18.5025
     7.5297   7.5297   9.2208   9.2208  10.3728  10.3729  11.5329

          k =-0.0000-0.5825-0.0000 (  3326 PWs)   bands (ev):

   -39.6655 -39.6414 -18.7762 -18.6993 -18.6454 -18.5636 -18.4988 -18.4542
     7.5488   8.0820   8.4207   8.8912  10.3710  10.5183  10.9251

          k =-0.0000-0.5825 0.0794 (  3336 PWs)   bands (ev):

   -39.6646 -39.6424 -18.7891 -18.7138 -18.6238 -18.5595 -18.4926 -18.4584
     7.5200   8.0618   8.5439   8.8808  10.4324  10.5866  10.8501

          k =-0.0000-0.5825 0.1587 (  3330 PWs)   bands (ev):

   -39.6620 -39.6450 -18.8085 -18.7469 -18.5796 -18.5477 -18.4832 -18.4703
     7.4929   7.9716   8.8290   8.9216  10.5396  10.6617  10.7884

          k =-0.0000-0.5825 0.2381 (  3338 PWs)   bands (ev):

   -39.6581 -39.6489 -18.8163 -18.7818 -18.5351 -18.5301 -18.4882 -18.4841
     7.5308   7.8105   9.0619   9.1118  10.4743  10.5505  11.1134

          k =-0.0000-0.5825-0.3174 (  3352 PWs)   bands (ev):

   -39.6535 -39.6535 -18.8069 -18.8069 -18.5092 -18.5092 -18.5015 -18.5015
     7.6449   7.6449   9.1918   9.1918  10.4555  10.4556  11.5422

          k = 0.0841 0.1456-0.0000 (  3369 PWs)   bands (ev):

   -39.7190 -39.6517 -18.8131 -18.5251 -18.4991 -18.4581 -18.4172 -18.3993
     4.4912   7.8223   9.3597  10.1312  10.8704  11.0727  11.1403

          k = 0.0841 0.1456 0.0794 (  3357 PWs)   bands (ev):

   -39.7164 -39.6543 -18.7996 -18.5210 -18.4984 -18.4671 -18.4201 -18.4067
     4.5906   7.6788   9.3241  10.1466  10.8798  10.8928  10.9597

          k = 0.0841 0.1456 0.1587 (  3351 PWs)   bands (ev):

   -39.7091 -39.6616 -18.7610 -18.5138 -18.5093 -18.4786 -18.4282 -18.4241
     4.8824   7.2426   9.3503  10.1959  10.5724  10.8152  10.8649

          k = 0.0841 0.1456 0.2381 (  3348 PWs)   bands (ev):

   -39.6983 -39.6725 -18.7030 -18.5666 -18.4918 -18.4709 -18.4448 -18.4402
     5.3461   6.6122   9.5342  10.1626  10.3534  10.6619  10.8481

          k = 0.0841 0.1456-0.3174 (  3340 PWs)   bands (ev):

   -39.6854 -39.6854 -18.6344 -18.6344 -18.4720 -18.4720 -18.4527 -18.4527
     5.9439   5.9439   9.8322   9.8322  10.4843  10.4844  10.9066

          k = 0.0841 0.2427 0.0000 (  3334 PWs)   bands (ev):

   -39.7062 -39.6473 -18.7781 -18.5854 -18.5481 -18.4958 -18.4312 -18.4162
     5.0657   8.2241   9.0547   9.7053  10.6370  10.8329  11.1368

          k = 0.0841 0.2427 0.0794 (  3343 PWs)   bands (ev):

   -39.7040 -39.6496 -18.7701 -18.5788 -18.5525 -18.4996 -18.4347 -18.4197
     5.1576   8.0855   9.0354   9.7340  10.6434  10.7597  11.0549

          k = 0.0841 0.2427 0.1587 (  3347 PWs)   bands (ev):

   -39.6977 -39.6560 -18.7467 -18.5802 -18.5531 -18.5006 -18.4445 -18.4317
     5.4272   7.6499   9.1139   9.8122  10.4539  10.6856  11.0011

          k = 0.0841 0.2427 0.2381 (  3341 PWs)   bands (ev):

   -39.6881 -39.6656 -18.7104 -18.6187 -18.5255 -18.4931 -18.4592 -18.4513
     5.8564   7.0409   9.3368   9.8577  10.2342  10.5168  11.0557

          k = 0.0841 0.2427-0.3174 (  3324 PWs)   bands (ev):

   -39.6769 -39.6769 -18.6656 -18.6656 -18.4965 -18.4965 -18.4672 -18.4672
     6.4124   6.4124   9.6350   9.6350  10.3123  10.3123  11.1666

          k = 0.0841 0.3398 0.0000 (  3331 PWs)   bands (ev):

   -39.6907 -39.6432 -18.7321 -18.6604 -18.6076 -18.5309 -18.4462 -18.4411
     5.8469   8.5383   8.7731   9.3234  10.5363  10.5727  10.8881

          k = 0.0841 0.3398 0.0794 (  3332 PWs)   bands (ev):

   -39.6889 -39.6451 -18.7395 -18.6453 -18.6115 -18.5308 -18.4517 -18.4395
     5.9245   8.4062   8.8009   9.3628  10.4321  10.6549  10.8668

          k = 0.0841 0.3398 0.1587 (  3328 PWs)   bands (ev):

   -39.6837 -39.6502 -18.7453 -18.6517 -18.5893 -18.5256 -18.4635 -18.4433
     6.1520   8.0174   8.9460   9.4566  10.2827  10.6053  10.9367

          k = 0.0841 0.3398 0.2381 (  3338 PWs)   bands (ev):

   -39.6761 -39.6579 -18.7376 -18.6839 -18.5471 -18.5134 -18.4790 -18.4582
     6.5134   7.5046   9.1791   9.5317  10.1450  10.4023  11.1343

          k = 0.0841 0.3398-0.3174 (  3336 PWs)   bands (ev):

   -39.6670 -39.6670 -18.7157 -18.7157 -18.5144 -18.5144 -18.4797 -18.4797
     6.9795   6.9795   9.4249   9.4249  10.1936  10.1937  11.3813

          k = 0.0841 0.4369 0.0000 (  3333 PWs)   bands (ev):

   -39.6757 -39.6411 -18.7267 -18.6832 -18.6596 -18.5579 -18.4717 -18.4591
     6.7191   8.4977   8.5688   9.0667  10.4068  10.6476  10.7149

          k = 0.0841 0.4369 0.0794 (  3332 PWs)   bands (ev):

   -39.6744 -39.6425 -18.7488 -18.6807 -18.6421 -18.5551 -18.4726 -18.4587
     6.7703   8.3755   8.6574   9.1184  10.3580  10.6371  10.7491

          k = 0.0841 0.4369 0.1587 (  3328 PWs)   bands (ev):

   -39.6706 -39.6462 -18.7712 -18.7076 -18.5959 -18.5436 -18.4821 -18.4573
     6.9207   8.1267   8.8324   9.2352  10.2539  10.5344  10.8967

          k = 0.0841 0.4369 0.2381 (  3334 PWs)   bands (ev):

   -39.6650 -39.6518 -18.7774 -18.7402 -18.5556 -18.5229 -18.4965 -18.4646
     7.1593   7.8043   9.0681   9.3328  10.1637  10.3437  11.1546

          k = 0.0841 0.4369-0.3174 (  3344 PWs)   bands (ev):

   -39.6584 -39.6584 -18.7659 -18.7659 -18.5281 -18.5281 -18.4845 -18.4845
     7.4653   7.4653   9.2807   9.2807  10.1823  10.1823  11.4926

          k = 0.0841 0.5339 0.0000 (  3335 PWs)   bands (ev):

   -39.6656 -39.6414 -18.7651 -18.6897 -18.6458 -18.5728 -18.4984 -18.4666
     7.4751   8.2463   8.4633   8.8862  10.3498  10.4801  10.9193

          k = 0.0841 0.5339 0.0794 (  3338 PWs)   bands (ev):

   -39.6647 -39.6423 -18.7779 -18.7048 -18.6260 -18.5666 -18.4946 -18.4682
     7.4741   8.1976   8.5743   8.9032  10.3691  10.4910  10.9013

          k = 0.0841 0.5339 0.1587 (  3337 PWs)   bands (ev):

   -39.6620 -39.6449 -18.7974 -18.7377 -18.5911 -18.5463 -18.4971 -18.4677
     7.4952   8.0756   8.8073   9.0070  10.3702  10.4435  10.9647

          k = 0.0841 0.5339 0.2381 (  3337 PWs)   bands (ev):

   -39.6581 -39.6488 -18.8053 -18.7720 -18.5618 -18.5185 -18.5091 -18.4697
     7.5725   7.8965   9.0545   9.1928  10.2501  10.3431  11.2118

          k = 0.0841 0.5339-0.3174 (  3338 PWs)   bands (ev):

   -39.6535 -39.6535 -18.7965 -18.7965 -18.5366 -18.5366 -18.4849 -18.4849
     7.7133   7.7133   9.2348   9.2348  10.2235  10.2235  11.5755

          k = 0.1681 0.2912-0.0000 (  3336 PWs)   bands (ev):

   -39.6929 -39.6437 -18.7388 -18.6269 -18.6189 -18.5180 -18.4570 -18.4372
     5.7321   8.5813   8.8328   9.3219  10.5226  10.5249  10.9822

          k = 0.1681 0.2912 0.0794 (  3342 PWs)   bands (ev):

   -39.6910 -39.6456 -18.7408 -18.6235 -18.6123 -18.5240 -18.4604 -18.4361
     5.8132   8.4455   8.8463   9.3570  10.4729  10.5753  10.9231

          k = 0.1681 0.2912 0.1587 (  3339 PWs)   bands (ev):

   -39.6857 -39.6509 -18.7395 -18.6409 -18.5777 -18.5305 -18.4695 -18.4394
     6.0513   8.0257   8.9842   9.4540  10.3224  10.5643  10.9110

          k = 0.1681 0.2912 0.2381 (  3331 PWs)   bands (ev):

   -39.6777 -39.6589 -18.7270 -18.6707 -18.5396 -18.5269 -18.4800 -18.4538
     6.4302   7.4767   9.2183   9.5565  10.1357  10.3574  11.0915

          k = 0.1681 0.2912-0.3174 (  3332 PWs)   bands (ev):

   -39.6683 -39.6683 -18.7025 -18.7025 -18.5212 -18.5212 -18.4754 -18.4754
     6.9206   6.9206   9.4701   9.4701  10.1461  10.1462  11.3235

          k = 0.1681 0.3883 0.0000 (  3342 PWs)   bands (ev):

   -39.6782 -39.6413 -18.6919 -18.6886 -18.6561 -18.5538 -18.4815 -18.4657
     6.5549   8.6610   8.7313   9.0214  10.3064  10.6186  10.7356

          k = 0.1681 0.3883 0.0794 (  3328 PWs)   bands (ev):

   -39.6768 -39.6427 -18.7237 -18.6789 -18.6303 -18.5593 -18.4863 -18.4590
     6.6183   8.5455   8.7913   9.0692  10.2719  10.6396  10.6827

          k = 0.1681 0.3883 0.1587 (  3337 PWs)   bands (ev):

   -39.6728 -39.6467 -18.7465 -18.6946 -18.5879 -18.5603 -18.4959 -18.4521
     6.8037   8.2615   8.9416   9.1836  10.1760  10.4464  10.8135

          k = 0.1681 0.3883 0.2381 (  3338 PWs)   bands (ev):

   -39.6668 -39.6527 -18.7526 -18.7198 -18.5654 -18.5440 -18.4981 -18.4572
     7.0960   7.8773   9.1527   9.3152  10.0445  10.1932  11.0508

          k = 0.1681 0.3883-0.3174 (  3332 PWs)   bands (ev):

   -39.6598 -39.6598 -18.7422 -18.7422 -18.5498 -18.5498 -18.4764 -18.4764
     7.4681   7.4681   9.3304   9.3304  10.0124  10.0124  11.3697

          k = 0.1681 0.4854 0.0000 (  3339 PWs)   bands (ev):

   -39.6657 -39.6413 -18.7360 -18.6734 -18.6466 -18.5886 -18.4979 -18.4977
     7.3849   8.5501   8.5585   8.8647  10.2255  10.4782  10.8847

          k = 0.1681 0.4854 0.0794 (  3334 PWs)   bands (ev):

   -39.6647 -39.6422 -18.7481 -18.6925 -18.6256 -18.5828 -18.5083 -18.4824
     7.4178   8.4520   8.6534   8.9366  10.2005  10.4128  10.9006

          k = 0.1681 0.4854 0.1587 (  3335 PWs)   bands (ev):

   -39.6621 -39.6449 -18.7682 -18.7213 -18.6099 -18.5549 -18.5179 -18.4668
     7.5156   8.2976   8.8239   9.1039  10.1145  10.2327  10.9849

          k = 0.1681 0.4854 0.2381 (  3335 PWs)   bands (ev):

   -39.6581 -39.6488 -18.7781 -18.7510 -18.5933 -18.5522 -18.5010 -18.4625
     7.6732   8.0962   9.0664   9.2830   9.9797   9.9955  11.1742

          k = 0.1681 0.4854-0.3174 (  3334 PWs)   bands (ev):

   -39.6535 -39.6535 -18.7720 -18.7720 -18.5723 -18.5723 -18.4746 -18.4746
     7.8760   7.8760   9.2928   9.2928   9.8791   9.8791  11.4669

          k = 0.1681 0.5825 0.0000 (  3320 PWs)   bands (ev):

   -39.6600 -39.6423 -18.7531 -18.6778 -18.6234 -18.6035 -18.5158 -18.5037
     7.8815   8.3420   8.5252   8.7705  10.2858  10.2944  11.0172

          k = 0.1681 0.5825 0.0794 (  3332 PWs)   bands (ev):

   -39.6594 -39.6430 -18.7626 -18.6936 -18.6287 -18.5778 -18.5217 -18.4925
     7.8656   8.3315   8.6287   8.7986  10.2503  10.2600  11.0276

          k = 0.1681 0.5825 0.1587 (  3334 PWs)   bands (ev):

   -39.6574 -39.6449 -18.7799 -18.7275 -18.6218 -18.5363 -18.5361 -18.4744
     7.8610   8.2702   8.8824   8.9156  10.1270  10.1448  11.1022

          k = 0.1681 0.5825 0.2381 (  3339 PWs)   bands (ev):

   -39.6546 -39.6478 -18.7891 -18.7609 -18.6039 -18.5568 -18.4985 -18.4657
     7.9107   8.1502   9.1294   9.1870   9.9020   9.9687  11.2832

          k = 0.1681 0.5825-0.3174 (  3336 PWs)   bands (ev):

   -39.6512 -39.6512 -18.7830 -18.7830 -18.5808 -18.5808 -18.4736 -18.4736
     8.0157   8.0157   9.3284   9.3284   9.7880   9.7880  11.5612

          k = 0.2522 0.4369-0.0000 (  3348 PWs)   bands (ev):

   -39.6657 -39.6413 -18.7110 -18.6774 -18.6469 -18.5874 -18.5208 -18.4973
     7.3528   8.6127   8.7551   8.8016  10.1443  10.4911  10.8506

          k = 0.2522 0.4369 0.0794 (  3335 PWs)   bands (ev):

   -39.6648 -39.6422 -18.7133 -18.7099 -18.6096 -18.5992 -18.5236 -18.4850
     7.3989   8.5513   8.7936   8.8822  10.1296  10.3828  10.8592

          k = 0.2522 0.4369 0.1587 (  3332 PWs)   bands (ev):

   -39.6621 -39.6448 -18.7418 -18.7238 -18.6118 -18.5721 -18.5234 -18.4668
     7.5317   8.4175   8.9077   9.0505  10.0647  10.1296  10.9125

          k = 0.2522 0.4369 0.2381 (  3340 PWs)   bands (ev):

   -39.6582 -39.6488 -18.7579 -18.7422 -18.6073 -18.5733 -18.4978 -18.4605
     7.7346   8.2202   9.0865   9.2368   9.8602   9.9261  11.0715

          k = 0.2522 0.4369-0.3174 (  3344 PWs)   bands (ev):

   -39.6535 -39.6535 -18.7568 -18.7568 -18.5911 -18.5911 -18.4715 -18.4715
     7.9781   7.9781   9.2676   9.2676   9.7775   9.7775  11.3641

          k = 0.2522 0.5339 0.0000 (  3334 PWs)   bands (ev):

   -39.6562 -39.6436 -18.7279 -18.6649 -18.6257 -18.6066 -18.5455 -18.5298
     8.0419   8.5778   8.6054   8.6999  10.1212  10.2605  11.0815

          k = 0.2522 0.5339 0.0794 (  3339 PWs)   bands (ev):

   -39.6557 -39.6441 -18.7314 -18.6866 -18.6434 -18.5772 -18.5507 -18.5106
     8.0676   8.5438   8.6525   8.7872  10.0821  10.1621  11.0841

          k = 0.2522 0.5339 0.1587 (  3337 PWs)   bands (ev):

   -39.6543 -39.6454 -18.7455 -18.7171 -18.6543 -18.5748 -18.5241 -18.4830
     8.1395   8.5002   8.7862   8.9783   9.9094   9.9650  11.1165

          k = 0.2522 0.5339 0.2381 (  3342 PWs)   bands (ev):

   -39.6523 -39.6474 -18.7596 -18.7442 -18.6429 -18.5958 -18.4887 -18.4667
     8.2421   8.4406   9.0028   9.2273   9.5993   9.7601  11.2304

          k = 0.2522 0.5339-0.3174 (  3336 PWs)   bands (ev):

   -39.6499 -39.6499 -18.7600 -18.7600 -18.6205 -18.6205 -18.4682 -18.4682
     8.3512   8.3512   9.2823   9.2823   9.5026   9.5026  11.4659

          k = 0.3363 0.5825-0.0000 (  3360 PWs)   bands (ev):

   -39.6486 -39.6486 -18.7178 -18.6489 -18.6489 -18.5735 -18.5668 -18.5668
     8.4856   8.4856   8.5847   8.6380  10.1230  10.1230  11.1796

          k = 0.3363 0.5825 0.0794 (  3339 PWs)   bands (ev):

   -39.6486 -39.6486 -18.7123 -18.6735 -18.6735 -18.5790 -18.5418 -18.5418
     8.5318   8.5318   8.6039   8.6593  10.0441  10.0441  11.1770

          k = 0.3363 0.5825 0.1587 (  3330 PWs)   bands (ev):

   -39.6485 -39.6485 -18.7109 -18.7109 -18.6969 -18.5948 -18.5037 -18.5037
     8.6541   8.6633   8.6633   8.7093   9.8407   9.8407  11.1909

          k = 0.3363 0.5825 0.2381 (  3327 PWs)   bands (ev):

   -39.6485 -39.6485 -18.7378 -18.7378 -18.6737 -18.6184 -18.4760 -18.4760
     8.7151   8.7529   8.8514   8.8514   9.5887   9.5888  11.2762

          k = 0.3363 0.5825-0.3174 (  3336 PWs)   bands (ev):

   -39.6485 -39.6485 -18.7475 -18.7475 -18.6461 -18.6461 -18.4661 -18.4661
     8.7562   8.7562   8.9792   8.9792   9.4363   9.4363  11.4853

     the Fermi energy is     9.1491 ev

!    total energy              =    -306.87595290 Ry
     total all-electron energy =     -3050.016724 Ry
     estimated scf accuracy    <          2.7E-09 Ry
     smearing contrib. (-TS)   =      -0.00101309 Ry
     internal energy E=F+TS    =    -306.87493982 Ry

     The total energy is F=E-TS. E is the sum of the following terms:
     one-electron contribution =     -72.51176941 Ry
     hartree contribution      =      41.67539180 Ry
     xc contribution           =     -34.56599995 Ry
     ewald contribution        =    -127.71546674 Ry
     one-center paw contrib.   =    -113.75709552 Ry

     convergence has been achieved in  32 iterations

     Forces acting on atoms (cartesian axes, Ry/au):

     atom    1 type  1   force =    -0.00000000   -0.00000000    0.00000000
     atom    2 type  1   force =     0.00000000   -0.00000000   -0.00000000
     The non-local contrib.  to forces
     atom    1 type  1   force =    -0.00000000   -0.00000000    0.00000000
     atom    2 type  1   force =    -0.00000000   -0.00000000    0.00000000
     The ionic contribution  to forces
     atom    1 type  1   force =     0.00000000   -0.00000000   -0.00000000
     atom    2 type  1   force =    -0.00000000    0.00000000    0.00000000
     The local contribution  to forces
     atom    1 type  1   force =     0.00000000    0.00000000    0.00000000
     atom    2 type  1   force =    -0.00000000    0.00000000    0.00000000
     The core correction contribution to forces
     atom    1 type  1   force =     0.00000000   -0.00000000    0.00000000
     atom    2 type  1   force =     0.00000000   -0.00000000   -0.00000000
     The Hubbard contrib.    to forces
     atom    1 type  1   force =     0.00000000    0.00000000    0.00000000
     atom    2 type  1   force =     0.00000000    0.00000000    0.00000000
     The SCF correction term to forces
     atom    1 type  1   force =    -0.00000000    0.00000000   -0.00000000
     atom    2 type  1   force =     0.00000000    0.00000000    0.00000000

     Total force =     0.000000     Total SCF correction =     0.000000


     Computing stress (Cartesian axis) and pressure

          total   stress  (Ry/bohr**3)                   (kbar)     P=      -43.53
  -0.00025667  -0.00000000   0.00000000          -37.76       -0.00        0.00
  -0.00000000  -0.00025667   0.00000000           -0.00      -37.76        0.00
   0.00000000   0.00000000  -0.00037441            0.00        0.00      -55.08

     Energy error            =      3.5E-03 Ry
     Gradient error          =      5.4E-28 Ry/Bohr
     Cell gradient error     =      5.5E+01 kbar

     number of scf cycles    =   2
     number of bfgs steps    =   1

     enthalpy           old  =    -306.8724841852 Ry
     enthalpy           new  =    -306.8759529043 Ry

     CASE: enthalpy          _new < enthalpy          _old

     new trust radius        =       0.0649297727 bohr
     new conv_thr            =            1.0E-10 Ry

     new unit-cell volume =    313.99452 a.u.^3 (    46.52919 Ang^3 )
     density =      3.18309 g/cm^3

CELL_PARAMETERS (alat=  6.25310370)
   0.979081062  -0.000000000   0.000000000
  -0.489540531   0.847909072   0.000000000
   0.000000000   0.000000000   1.546917833

ATOMIC_POSITIONS (crystal)
Sc           -0.0000000000       -0.0000000000        0.0000000000
Sc            0.6666666667        0.3333333333        0.5000000000



     Writing config-only to output data dir sc_vcrelax.out/scandium.save/
     NEW-OLD atomic charge density approx. for the potential

     Check: negative core charge=   -0.000030
     extrapolated charge   21.04049, renormalised to   22.00000

     total cpu time spent up to now is      817.6 secs

     Self-consistent Calculation

     iteration #  1     ecut=    70.00 Ry     beta= 0.70
     Davidson diagonalization with overlap
     c_bands:  1 eigenvalues not converged
     c_bands:  2 eigenvalues not converged
     c_bands:  3 eigenvalues not converged
     c_bands:  4 eigenvalues not converged
     c_bands:  1 eigenvalues not converged
     c_bands:  1 eigenvalues not converged
     c_bands:  3 eigenvalues not converged
     c_bands:  4 eigenvalues not converged
     c_bands:  3 eigenvalues not converged
     c_bands:  4 eigenvalues not converged
     c_bands:  2 eigenvalues not converged
     c_bands:  2 eigenvalues not converged
     c_bands:  4 eigenvalues not converged
     c_bands:  2 eigenvalues not converged
     c_bands:  4 eigenvalues not converged
     c_bands:  4 eigenvalues not converged
     c_bands:  5 eigenvalues not converged
     c_bands:  3 eigenvalues not converged
     c_bands:  2 eigenvalues not converged
     c_bands:  5 eigenvalues not converged
     c_bands:  3 eigenvalues not converged
     c_bands:  5 eigenvalues not converged
     c_bands:  5 eigenvalues not converged
     c_bands:  2 eigenvalues not converged
     c_bands:  5 eigenvalues not converged
     c_bands:  5 eigenvalues not converged
     c_bands:  4 eigenvalues not converged
     c_bands:  3 eigenvalues not converged
     c_bands:  3 eigenvalues not converged
     c_bands:  2 eigenvalues not converged
     c_bands:  3 eigenvalues not converged
     c_bands:  2 eigenvalues not converged
     c_bands:  3 eigenvalues not converged
     c_bands:  5 eigenvalues not converged
     c_bands:  2 eigenvalues not converged
     c_bands:  3 eigenvalues not converged
     c_bands:  3 eigenvalues not converged
     c_bands:  2 eigenvalues not converged
     c_bands:  3 eigenvalues not converged
     c_bands:  4 eigenvalues not converged
     c_bands:  3 eigenvalues not converged
     c_bands:  4 eigenvalues not converged
     c_bands:  2 eigenvalues not converged
     c_bands:  2 eigenvalues not converged
     c_bands:  3 eigenvalues not converged
     c_bands:  4 eigenvalues not converged
     c_bands:  2 eigenvalues not converged
     c_bands:  4 eigenvalues not converged
     c_bands:  4 eigenvalues not converged
     c_bands:  1 eigenvalues not converged
     c_bands:  5 eigenvalues not converged
     c_bands:  3 eigenvalues not converged
     c_bands:  4 eigenvalues not converged
     c_bands:  2 eigenvalues not converged
     c_bands:  5 eigenvalues not converged
     c_bands:  3 eigenvalues not converged
     c_bands:  5 eigenvalues not converged
     c_bands:  2 eigenvalues not converged
     c_bands:  5 eigenvalues not converged
     c_bands:  4 eigenvalues not converged
     c_bands:  3 eigenvalues not converged
     c_bands:  5 eigenvalues not converged
     c_bands:  3 eigenvalues not converged
     c_bands:  4 eigenvalues not converged
     ethr =  1.00E-06,  avg # of iterations = 22.4

     total cpu time spent up to now is      884.8 secs

     total energy              =    -306.61579001 Ry
     estimated scf accuracy    <       0.19175251 Ry

     iteration #  2     ecut=    70.00 Ry     beta= 0.70
     Davidson diagonalization with overlap
     ethr =  8.72E-04,  avg # of iterations =  7.2

     total cpu time spent up to now is      907.7 secs

     total energy              =    -306.88649958 Ry
     estimated scf accuracy    <       0.30593522 Ry

     iteration #  3     ecut=    70.00 Ry     beta= 0.70
     Davidson diagonalization with overlap
[...]
     7.1378   9.2427   9.5888  10.1787  11.5285  11.6824  11.8290

          k = 0.0000 0.3950 0.1659 (  3006 PWs)   bands (ev):

   -38.5418 -38.4956 -17.7030 -17.5827 -17.4749 -17.3995 -17.2958 -17.2883
     7.3421   8.9625   9.7299  10.2894  11.3518  11.7662  11.8542

          k = 0.0000 0.3950 0.2489 (  3002 PWs)   bands (ev):

   -38.5313 -38.5062 -17.7025 -17.6339 -17.4058 -17.3759 -17.3198 -17.3064
     7.6651   8.5350   9.9945  10.3663  11.2438  11.5499  12.1275

          k = 0.0000 0.3950-0.3318 (  2984 PWs)   bands (ev):

   -38.5188 -38.5188 -17.6777 -17.6777 -17.3479 -17.3479 -17.3465 -17.3465
     8.0782   8.0782  10.2606  10.2606  11.3172  11.3172  12.4798

          k = 0.0000 0.4937-0.0000 (  3018 PWs)   bands (ev):

   -38.5328 -38.4865 -17.6747 -17.5855 -17.5658 -17.4408 -17.3338 -17.2844
     7.9217   9.1093   9.3524   9.9090  11.4630  11.5549  11.9957

          k = 0.0000 0.4937 0.0830 (  3015 PWs)   bands (ev):

   -38.5311 -38.4882 -17.7039 -17.5934 -17.5372 -17.4349 -17.3246 -17.2904
     7.9429   9.0526   9.4431   9.9358  11.5372  11.5620  11.9370

          k = 0.0000 0.4937 0.1659 (  3009 PWs)   bands (ev):

   -38.5260 -38.4933 -17.7373 -17.6424 -17.4657 -17.4181 -17.3122 -17.3076
     8.0173   8.8877   9.6583  10.0545  11.5391  11.7562  11.7872

          k = 0.0000 0.4937 0.2489 (  2987 PWs)   bands (ev):

   -38.5185 -38.5008 -17.7481 -17.6944 -17.3973 -17.3930 -17.3331 -17.3163
     8.1625   8.6397   9.9372  10.2076  11.4465  11.6141  12.1079

          k = 0.0000 0.4937-0.3318 (  2998 PWs)   bands (ev):

   -38.5096 -38.5096 -17.7327 -17.7327 -17.3631 -17.3631 -17.3450 -17.3450
     8.3787   8.3787  10.1782  10.1782  11.4574  11.4575  12.5701

          k =-0.0000-0.5925 0.0000 (  3006 PWs)   bands (ev):

   -38.5249 -38.4878 -17.6996 -17.5877 -17.5565 -17.4480 -17.3560 -17.2882
     8.4145   8.8882   9.2698   9.8082  11.4071  11.5059  12.1147

          k =-0.0000-0.5925 0.0830 (  3018 PWs)   bands (ev):

   -38.5235 -38.4892 -17.7225 -17.6117 -17.5214 -17.4420 -17.3435 -17.2944
     8.3647   8.8810   9.4277   9.7829  11.4856  11.5759  12.0220

          k =-0.0000-0.5925 0.1659 (  2994 PWs)   bands (ev):

   -38.5194 -38.4932 -17.7541 -17.6637 -17.4549 -17.4249 -17.3243 -17.3119
     8.3107   8.8091   9.7757   9.8084  11.6970  11.7178  11.7898

          k =-0.0000-0.5925 0.2489 (  2992 PWs)   bands (ev):

   -38.5134 -38.4992 -17.7666 -17.7163 -17.3992 -17.3908 -17.3380 -17.3215
     8.3397   8.6430   9.9747  10.1023  11.5643  11.7002  12.0919

          k =-0.0000-0.5925-0.3318 (  2988 PWs)   bands (ev):

   -38.5063 -38.5063 -17.7533 -17.7533 -17.3687 -17.3687 -17.3439 -17.3439
     8.4616   8.4616  10.1597  10.1597  11.5646  11.5646  12.5877

          k = 0.0855 0.1481-0.0000 (  2982 PWs)   bands (ev):

   -38.5979 -38.4944 -17.7797 -17.3965 -17.3659 -17.3011 -17.2488 -17.2138
     5.3161   8.6875  10.5545  11.0712  11.9483  12.0984  12.1161

          k = 0.0855 0.1481 0.0830 (  2980 PWs)   bands (ev):

   -38.5940 -38.4984 -17.7616 -17.3904 -17.3635 -17.3150 -17.2530 -17.2238
     5.4265   8.5877  10.4500  11.0829  11.9260  11.9552  11.9870

          k = 0.0855 0.1481 0.1659 (  2977 PWs)   bands (ev):

   -38.5829 -38.5097 -17.7099 -17.3774 -17.3730 -17.3374 -17.2650 -17.2484
     5.7492   8.2236  10.3627  11.1220  11.6556  11.7985  11.9247

          k = 0.0855 0.1481 0.2489 (  2987 PWs)   bands (ev):

   -38.5662 -38.5266 -17.6321 -17.4482 -17.3469 -17.3260 -17.2827 -17.2793
     6.2581   7.6071  10.4984  11.1037  11.4092  11.6989  11.8145

          k = 0.0855 0.1481-0.3318 (  2994 PWs)   bands (ev):

   -38.5465 -38.5465 -17.5397 -17.5397 -17.3180 -17.3180 -17.3005 -17.3005
     6.9050   6.9050  10.7995  10.7995  11.5073  11.5074  11.8706

          k = 0.0855 0.2469-0.0000 (  2990 PWs)   bands (ev):

   -38.5809 -38.4902 -17.7335 -17.4686 -17.4199 -17.3529 -17.2643 -17.2384
     5.9169   9.0825  10.1379  10.5980  11.7280  11.8028  12.1380

          k = 0.0855 0.2469 0.0830 (  2989 PWs)   bands (ev):

   -38.5775 -38.4937 -17.7231 -17.4590 -17.4238 -17.3615 -17.2694 -17.2419
     6.0177   9.0021  10.0490  10.6286  11.6942  11.8143  12.0342

          k = 0.0855 0.2469 0.1659 (  2986 PWs)   bands (ev):

   -38.5677 -38.5036 -17.6924 -17.4616 -17.4217 -17.3656 -17.2833 -17.2563
     6.3126   8.6457  10.0303  10.7116  11.4930  11.7939  11.9524

          k = 0.0855 0.2469 0.2489 (  2992 PWs)   bands (ev):

   -38.5531 -38.5184 -17.6439 -17.5170 -17.3822 -17.3524 -17.3033 -17.2845
     6.7792   8.0395  10.2361  10.7634  11.2763  11.5859  12.0197

          k = 0.0855 0.2469-0.3318 (  2994 PWs)   bands (ev):

   -38.5357 -38.5357 -17.5826 -17.5826 -17.3449 -17.3449 -17.3146 -17.3146
     7.3773   7.3773  10.5494  10.5494  11.3498  11.3498  12.1480

          k = 0.0855 0.3456-0.0000 (  2997 PWs)   bands (ev):

   -38.5597 -38.4867 -17.6725 -17.5594 -17.4847 -17.4018 -17.2808 -17.2743
     6.7251   9.3701   9.7499  10.1928  11.5495  11.6590  11.9007

          k = 0.0855 0.3456 0.0830 (  2997 PWs)   bands (ev):

   -38.5570 -38.4895 -17.6815 -17.5398 -17.4905 -17.4037 -17.2884 -17.2700
     6.8080   9.3201   9.7011  10.2394  11.4641  11.7368  11.8625

          k = 0.0855 0.3456 0.1659 (  2991 PWs)   bands (ev):

   -38.5491 -38.4974 -17.6884 -17.5500 -17.4627 -17.3968 -17.3048 -17.2718
     7.0506   8.9908   9.8020  10.3485  11.3124  11.7117  11.8991

          k = 0.0855 0.3456 0.2489 (  2999 PWs)   bands (ev):

   -38.5373 -38.5093 -17.6768 -17.5981 -17.4077 -17.3754 -17.3268 -17.2905
     7.4340   8.4724  10.0586  10.4425  11.1677  11.4679  12.1178

          k = 0.0855 0.3456-0.3318 (  2998 PWs)   bands (ev):

   -38.5233 -38.5233 -17.6448 -17.6448 -17.3692 -17.3692 -17.3237 -17.3237
     7.9253   7.9253  10.3349  10.3349  11.2230  11.2230  12.3921

          k = 0.0855 0.4444-0.0000 (  3004 PWs)   bands (ev):

   -38.5391 -38.4859 -17.6399 -17.6073 -17.5427 -17.4385 -17.3179 -17.2950
     7.6099   9.3012   9.4626   9.9505  11.3972  11.6664  11.8712

          k = 0.0855 0.4444 0.0830 (  3008 PWs)   bands (ev):

   -38.5371 -38.4880 -17.6797 -17.5816 -17.5339 -17.4351 -17.3150 -17.2956
     7.6598   9.2400   9.5030  10.0110  11.3874  11.6383  11.8769

          k = 0.0855 0.4444 0.1659 (  3004 PWs)   bands (ev):

   -38.5313 -38.4937 -17.7131 -17.6179 -17.4748 -17.4169 -17.3264 -17.2911
     7.8073   9.0171   9.6849  10.1543  11.3030  11.5934  11.9248

          k = 0.0855 0.4444 0.2489 (  2992 PWs)   bands (ev):

   -38.5227 -38.5023 -17.7218 -17.6667 -17.4247 -17.3810 -17.3472 -17.2980
     8.0445   8.6961   9.9642  10.2835  11.1980  11.4025  12.1681

          k = 0.0855 0.4444-0.3318 (  2992 PWs)   bands (ev):

   -38.5125 -38.5125 -17.7049 -17.7049 -17.3892 -17.3892 -17.3255 -17.3255
     8.3528   8.3528  10.2249  10.2249  11.2157  11.2157  12.5393

          k = 0.0855 0.5431-0.0000 (  3005 PWs)   bands (ev):

   -38.5249 -38.4877 -17.6865 -17.5767 -17.5570 -17.4582 -17.3555 -17.3033
     8.3508   9.0535   9.3112   9.7910  11.3516  11.5011  12.1019

          k = 0.0855 0.5431 0.0830 (  3010 PWs)   bands (ev):

   -38.5235 -38.4891 -17.7092 -17.6021 -17.5244 -17.4489 -17.3457 -17.3063
     8.3349   9.0226   9.4409   9.8011  11.3868  11.5212  12.0544

          k = 0.0855 0.5431 0.1659 (  3006 PWs)   bands (ev):

   -38.5195 -38.4932 -17.7408 -17.6535 -17.4751 -17.4162 -17.3445 -17.3051
     8.3323   8.9216   9.7014   9.9263  11.3987  11.5349  12.0305

          k = 0.0855 0.5431 0.2489 (  2989 PWs)   bands (ev):

   -38.5134 -38.4992 -17.7535 -17.7050 -17.4360 -17.3732 -17.3612 -17.3047
     8.3985   8.7391   9.9727  10.1704  11.2737  11.4465  12.2495

          k = 0.0855 0.5431-0.3318 (  2996 PWs)   bands (ev):

   -38.5063 -38.5063 -17.7410 -17.7410 -17.4009 -17.4009 -17.3246 -17.3246
     8.5436   8.5436  10.2032  10.2032  11.2786  11.2786  12.6488

          k = 0.1710 0.2962-0.0000 (  2996 PWs)   bands (ev):

   -38.5627 -38.4871 -17.6815 -17.5160 -17.5071 -17.3804 -17.2942 -17.2688
     6.6086   9.4255   9.8268  10.1819  11.4825  11.6335  12.0037

          k = 0.1710 0.2962 0.0830 (  2993 PWs)   bands (ev):

   -38.5598 -38.4899 -17.6841 -17.5128 -17.4957 -17.3915 -17.2994 -17.2649
     6.6960   9.3794   9.7557  10.2218  11.4487  11.6880  11.9253

          k = 0.1710 0.2962 0.1659 (  2989 PWs)   bands (ev):

   -38.5517 -38.4982 -17.6821 -17.5377 -17.4477 -17.4024 -17.3134 -17.2658
     6.9520   9.0227   9.8399  10.3331  11.3250  11.6718  11.8876

          k = 0.1710 0.2962 0.2489 (  3004 PWs)   bands (ev):

   -38.5395 -38.5105 -17.6644 -17.5823 -17.3956 -17.3948 -17.3293 -17.2838
     7.3573   8.4621  10.0941  10.4544  11.1460  11.4104  12.0891

          k = 0.1710 0.2962-0.3318 (  3000 PWs)   bands (ev):

   -38.5250 -38.5250 -17.6291 -17.6291 -17.3797 -17.3797 -17.3165 -17.3165
     7.8782   7.8782  10.3717  10.3717  11.1640  11.1640  12.3382

          k = 0.1710 0.3950-0.0000 (  2999 PWs)   bands (ev):

   -38.5426 -38.4858 -17.6190 -17.5932 -17.5472 -17.4256 -17.3224 -17.3094
     7.4517   9.5546   9.5696   9.8727  11.2732  11.7582  11.7699

          k = 0.1710 0.3950 0.0830 (  2998 PWs)   bands (ev):

   -38.5405 -38.4879 -17.6549 -17.5823 -17.5166 -17.4364 -17.3297 -17.2967
     7.5174   9.4618   9.6196   9.9319  11.2554  11.6764  11.7894

          k = 0.1710 0.3950 0.1659 (  3006 PWs)   bands (ev):

   -38.5343 -38.4941 -17.6857 -17.6044 -17.4641 -17.4350 -17.3443 -17.2827
     7.7092   9.1895   9.7939  10.0694  11.1783  11.4788  11.8743

          k = 0.1710 0.3950 0.2489 (  3002 PWs)   bands (ev):

   -38.5251 -38.5033 -17.6933 -17.6430 -17.4414 -17.4039 -17.3472 -17.2870
     8.0107   8.8078  10.0438  10.2300  11.0433  11.2054  12.0931

          k = 0.1710 0.3950-0.3318 (  2996 PWs)   bands (ev):

   -38.5142 -38.5142 -17.6771 -17.6771 -17.4175 -17.4175 -17.3132 -17.3132
     8.3924   8.3924  10.2551  10.2551  11.0026  11.0026  12.4268

          k = 0.1710 0.4937-0.0000 (  3009 PWs)   bands (ev):

   -38.5251 -38.4876 -17.6521 -17.5622 -17.5581 -17.4718 -17.3544 -17.3410
     8.2804   9.3635   9.4030   9.7382  11.2033  11.5227  12.0525

          k = 0.1710 0.4937 0.0830 (  3005 PWs)   bands (ev):

   -38.5237 -38.4890 -17.6734 -17.5961 -17.5195 -17.4650 -17.3580 -17.3270
     8.3083   9.3014   9.4801   9.8185  11.1965  11.4457  12.0482

          k = 0.1710 0.4937 0.1659 (  3006 PWs)   bands (ev):

   -38.5196 -38.4931 -17.7059 -17.6371 -17.5013 -17.4202 -17.3707 -17.3023
     8.3948   9.1609   9.6774  10.0181  11.1328  11.2513  12.0866

          k = 0.1710 0.4937 0.2489 (  3002 PWs)   bands (ev):

   -38.5135 -38.4991 -17.7213 -17.6814 -17.4775 -17.4158 -17.3466 -17.2934
     8.5429   8.9624   9.9698  10.2460  10.9599  11.0167  12.2536

          k = 0.1710 0.4937-0.3318 (  2994 PWs)   bands (ev):

   -38.5063 -38.5063 -17.7125 -17.7125 -17.4461 -17.4461 -17.3091 -17.3091
     8.7420   8.7420  10.2573  10.2573  10.8600  10.8601  12.5609

          k = 0.1710 0.5925-0.0000 (  3010 PWs)   bands (ev):

   -38.5171 -38.4899 -17.6733 -17.5635 -17.5269 -17.4933 -17.3797 -17.3476
     8.7534   9.1769   9.3454   9.6531  11.2275  11.3842  12.2010

          k = 0.1710 0.5925 0.0830 (  3002 PWs)   bands (ev):

   -38.5160 -38.4909 -17.6898 -17.5901 -17.5313 -17.4567 -17.3771 -17.3384
     8.7187   9.1789   9.4816   9.6726  11.2087  11.3442  12.1880

          k = 0.1710 0.5925 0.1659 (  2996 PWs)   bands (ev):

   -38.5130 -38.4938 -17.7184 -17.6435 -17.5184 -17.3965 -17.3926 -17.3123
     8.6925   9.1309   9.7891   9.7965  11.1015  11.2256  12.2153

          k = 0.1710 0.5925 0.2489 (  3001 PWs)   bands (ev):

   -38.5086 -38.4982 -17.7336 -17.6934 -17.4912 -17.4218 -17.3424 -17.2976
     8.7370   9.0021  10.0380  10.1664  10.8685  11.0212  12.3772

          k = 0.1710 0.5925-0.3318 (  2994 PWs)   bands (ev):

   -38.5034 -38.5034 -17.7255 -17.7255 -17.4568 -17.4568 -17.3073 -17.3073
     8.8514   8.8514  10.3078  10.3078  10.7736  10.7736  12.6738

          k = 0.2565 0.4444-0.0000 (  3004 PWs)   bands (ev):

   -38.5252 -38.4875 -17.6229 -17.5728 -17.5587 -17.4643 -17.3682 -17.3538
     8.2579   9.4546   9.5921   9.6376  11.1210  11.5372  12.0118

          k = 0.2565 0.4444 0.0830 (  2999 PWs)   bands (ev):

   -38.5237 -38.4889 -17.6300 -17.6257 -17.4939 -17.4852 -17.3732 -17.3322
     8.3040   9.3929   9.6364   9.7392  11.1146  11.4128  12.0099

          k = 0.2565 0.4444 0.1659 (  3011 PWs)   bands (ev):

   -38.5196 -38.4930 -17.6760 -17.6417 -17.5049 -17.4371 -17.3771 -17.3020
     8.4360   9.2738   9.7700   9.9472  11.0632  11.1272  12.0321

          k = 0.2565 0.4444 0.2489 (  3007 PWs)   bands (ev):

   -38.5135 -38.4991 -17.6982 -17.6717 -17.4956 -17.4406 -17.3411 -17.2902
     8.6354   9.0974   9.9843  10.1809  10.8192  10.9187  12.1650

          k = 0.2565 0.4444-0.3318 (  3000 PWs)   bands (ev):

   -38.5063 -38.5063 -17.6952 -17.6952 -17.4691 -17.4691 -17.3041 -17.3041
     8.8705   8.8705  10.2146  10.2146  10.7345  10.7345  12.4633

          k = 0.2565 0.5431-0.0000 (  2998 PWs)   bands (ev):

   -38.5115 -38.4921 -17.6457 -17.5552 -17.5115 -17.5042 -17.3991 -17.3965
     8.9283   9.4018   9.4258   9.5536  11.1125  11.3127  12.2659

          k = 0.2565 0.5431 0.0830 (  3006 PWs)   bands (ev):

   -38.5107 -38.4928 -17.6511 -17.5934 -17.5416 -17.4526 -17.4067 -17.3658
     8.9490   9.3800   9.4845   9.6432  11.0790  11.2039  12.2560

          k = 0.2565 0.5431 0.1659 (  2997 PWs)   bands (ev):

   -38.5086 -38.4949 -17.6759 -17.6366 -17.5584 -17.4374 -17.3779 -17.3232
     9.0105   9.3510   9.6458   9.8611  10.9298  10.9664  12.2605

          k = 0.2565 0.5431 0.2489 (  2990 PWs)   bands (ev):

   -38.5054 -38.4980 -17.6988 -17.6768 -17.5387 -17.4677 -17.3275 -17.2978
     9.1053   9.2987   9.9041  10.1517  10.5869  10.7544  12.3542

          k = 0.2565 0.5431-0.3318 (  2994 PWs)   bands (ev):

   -38.5017 -38.5017 -17.6999 -17.6999 -17.5045 -17.5045 -17.2989 -17.2989
     9.2114   9.2114  10.2286  10.2286  10.4693  10.4693  12.5962

          k = 0.3421 0.5925-0.0000 (  3006 PWs)   bands (ev):

   -38.5001 -38.5001 -17.6375 -17.5372 -17.5372 -17.4499 -17.4499 -17.4270
     9.3476   9.3476   9.4113   9.4502  11.1515  11.1515  12.3760

          k = 0.3421 0.5925 0.0830 (  2994 PWs)   bands (ev):

   -38.5001 -38.5001 -17.6297 -17.5784 -17.5784 -17.4351 -17.4081 -17.4081
     9.3988   9.3988   9.4421   9.4715  11.0679  11.0679  12.3640

          k = 0.3421 0.5925 0.1659 (  3000 PWs)   bands (ev):

   -38.5001 -38.5001 -17.6346 -17.6346 -17.6072 -17.4583 -17.3506 -17.3506
     9.5176   9.5264   9.5433   9.5433  10.8528  10.8528  12.3549

          k = 0.3421 0.5925 0.2489 (  2982 PWs)   bands (ev):

   -38.5001 -38.5001 -17.6737 -17.6737 -17.5734 -17.4929 -17.3100 -17.3100
     9.5890   9.5933   9.7457   9.7457  10.5889  10.5889  12.4200

          k = 0.3421 0.5925-0.3318 (  2982 PWs)   bands (ev):

   -38.5000 -38.5000 -17.6876 -17.6876 -17.5333 -17.5333 -17.2955 -17.2955
     9.6210   9.6210   9.8766   9.8766  10.4347  10.4347  12.6319

     the Fermi energy is    10.0681 ev

!    total energy              =    -306.87959306 Ry
     total all-electron energy =     -3050.020364 Ry
     estimated scf accuracy    <          2.0E-11 Ry
     smearing contrib. (-TS)   =      -0.00078135 Ry
     internal energy E=F+TS    =    -306.87881170 Ry

     The total energy is F=E-TS. E is the sum of the following terms:
     one-electron contribution =     -67.47696822 Ry
     hartree contribution      =      40.08604853 Ry
     xc contribution           =     -34.67356683 Ry
     ewald contribution        =    -131.05780352 Ry
     one-center paw contrib.   =    -113.75652166 Ry

     convergence has been achieved in  27 iterations

     Forces acting on atoms (cartesian axes, Ry/au):

     atom    1 type  1   force =     0.00000000    0.00000000   -0.00000000
     atom    2 type  1   force =    -0.00000000   -0.00000000    0.00000000
     The non-local contrib.  to forces
     atom    1 type  1   force =     0.00000000   -0.00000000    0.00000000
     atom    2 type  1   force =    -0.00000000    0.00000000   -0.00000000
     The ionic contribution  to forces
     atom    1 type  1   force =     0.00000000   -0.00000000   -0.00000000
     atom    2 type  1   force =    -0.00000000    0.00000000    0.00000000
     The local contribution  to forces
     atom    1 type  1   force =     0.00000000    0.00000000    0.00000000
     atom    2 type  1   force =    -0.00000000    0.00000000    0.00000000
     The core correction contribution to forces
     atom    1 type  1   force =     0.00000000   -0.00000000    0.00000000
     atom    2 type  1   force =     0.00000000   -0.00000000   -0.00000000
     The Hubbard contrib.    to forces
     atom    1 type  1   force =     0.00000000    0.00000000    0.00000000
     atom    2 type  1   force =     0.00000000    0.00000000    0.00000000
     The SCF correction term to forces
     atom    1 type  1   force =    -0.00000000    0.00000000   -0.00000000
     atom    2 type  1   force =     0.00000000    0.00000000   -0.00000000

     Total force =     0.000000     Total SCF correction =     0.000000


     Computing stress (Cartesian axis) and pressure

          total   stress  (Ry/bohr**3)                   (kbar)     P=       -2.00
  -0.00001249  -0.00000000   0.00000000           -1.84       -0.00        0.00
  -0.00000000  -0.00001249  -0.00000000           -0.00       -1.84       -0.00
   0.00000000   0.00000000  -0.00001572            0.00        0.00       -2.31


     Writing all to output data dir sc_vcrelax.out/scandium.save/

     init_run     :     16.60s CPU     16.73s WALL (       2 calls)
     electrons    :   4288.63s CPU   4334.47s WALL (      10 calls)
     update_pot   :     17.54s CPU     17.56s WALL (       8 calls)
     forces       :     24.05s CPU     24.25s WALL (      10 calls)
     stress       :    112.55s CPU    113.60s WALL (      10 calls)

     Called by init_run:
     wfcinit      :     10.89s CPU     10.95s WALL (       2 calls)
     potinit      :      1.14s CPU      1.16s WALL (       2 calls)
     hinit0       :      4.38s CPU      4.39s WALL (       2 calls)

     Called by electrons:
     c_bands      :   3845.82s CPU   3882.20s WALL (     237 calls)
     sum_band     :    403.78s CPU    408.93s WALL (     237 calls)
     v_of_rho     :      1.97s CPU      1.98s WALL (     245 calls)
     newd         :     15.87s CPU     19.82s WALL (     245 calls)
     PAW_pot      :     21.73s CPU     21.75s WALL (     253 calls)
     mix_rho      :      1.40s CPU      1.49s WALL (     237 calls)

     Called by c_bands:
     init_us_2    :     61.01s CPU     63.94s WALL (   47880 calls)
     init_us_2:cp :     60.85s CPU     63.84s WALL (   47880 calls)
     cegterg      :   3717.31s CPU   3726.55s WALL (   22686 calls)

     Called by *egterg:
     cdiaghg      :     36.88s CPU     37.11s WALL (  155667 calls)
     h_psi        :   2651.29s CPU   2658.69s WALL (  156973 calls)
     s_psi        :    221.61s CPU    222.21s WALL (  156973 calls)
     g_psi        :     21.61s CPU     21.72s WALL (  134097 calls)

     Called by h_psi:
     h_psi:calbec :    213.81s CPU    214.29s WALL (  156973 calls)
     vloc_psi     :   2208.40s CPU   2214.98s WALL (  156973 calls)
     add_vuspsi   :    222.08s CPU    222.52s WALL (  156973 calls)

     General routines
     calbec       :    283.99s CPU    284.62s WALL (  184998 calls)
     fft          :      1.42s CPU      1.42s WALL (    1070 calls)
     ffts         :      0.33s CPU      0.33s WALL (     237 calls)
     fftw         :   2239.88s CPU   2246.61s WALL ( 2882425 calls)

     Parallel routines

     PWSCF        :      1h14m CPU      1h15m WALL


   This run was terminated on:  17:38:10  16Jun2023            

=------------------------------------------------------------------------------=
   JOB DONE.
=------------------------------------------------------------------------------=
