
     Program PWSCF v.7.2 starts on 26Jul2023 at 14:32:40 

     This program is part of the open-source Quantum ESPRESSO suite
     for quantum simulation of materials; please cite
         "P. Giannozzi et al., J. Phys.:Condens. Matter 21 395502 (2009);
         "P. Giannozzi et al., J. Phys.:Condens. Matter 29 465901 (2017);
         "P. Giannozzi et al., J. Chem. Phys. 152 154105 (2020);
          URL http://www.quantum-espresso.org", 
     in publications or presentations arising from this work. More details at
     http://www.quantum-espresso.org/quote

     Parallel version (MPI), running on    20 processors

     MPI processes distributed on     1 nodes
     316601 MiB available memory on the printing compute node when the environment starts

     Waiting for input...
     Reading input from standard input

     Current dimensions of program PWSCF are:
     Max number of different atomic species (ntypx) = 10
     Max number of k-points (npk) = 120000
     Max angular momentum in pseudopotentials (lmaxx) =  4
     file Sc.pz-spn-kjpaw_psl.1.0.0.UPF: wavefunction(s)  3S 3P 3D renormalized

     R & G space division:  proc/nbgrp/npool/nimage =      20
     Subspace diagonalization in iterative solution of the eigenvalue problem:
     a serial algorithm will be used


     Parallelization info
     --------------------
     sticks:   dense  smooth     PW     G-vecs:    dense   smooth      PW
     Min          42      32      9                 1626     1056     169
     Max          43      33     10                 1637     1063     176
     Sum         859     649    199                32631    21181    3489

     Using Slab Decomposition



     bravais-lattice index     =            4
     lattice parameter (alat)  =       6.2531  a.u.
     unit-cell volume          =     337.5249 (a.u.)^3
     number of atoms/cell      =            2
     number of atomic types    =            1
     number of electrons       =        22.00
     number of Kohn-Sham states=           15
     kinetic-energy cutoff     =      60.0000  Ry
     charge density cutoff     =     320.0000  Ry
     scf convergence threshold =      1.0E-08
     mixing beta               =       0.7000
     number of iterations used =            8  plain     mixing
     Exchange-correlation= SLA  PZ   NOGX NOGC
                           (   1   1   0   0   0   0   0)

     celldm(1)=   6.253104  celldm(2)=   0.000000  celldm(3)=   1.594000
     celldm(4)=   0.000000  celldm(5)=   0.000000  celldm(6)=   0.000000

     crystal axes: (cart. coord. in units of alat)
               a(1) = (   1.000000   0.000000   0.000000 )  
               a(2) = (  -0.500000   0.866025   0.000000 )  
               a(3) = (   0.000000   0.000000   1.594000 )  

     reciprocal axes: (cart. coord. in units 2 pi/alat)
               b(1) = (  1.000000  0.577350 -0.000000 )  
               b(2) = (  0.000000  1.154701  0.000000 )  
               b(3) = (  0.000000 -0.000000  0.627353 )  


     PseudoPot. # 1 for Sc read from file:
     ../../../Sc.pz-spn-kjpaw_psl.1.0.0.UPF
     MD5 check sum: 1f9095df0bb42a6568b4e9f256ff075f
     Pseudo is Projector augmented-wave + core cor, Zval = 11.0
     Generated using 'atomic' code by A. Dal Corso  v.7.1
     Shape of augmentation charge: PSQ
     Using radial grid of 1173 points,  6 beta functions with: 
                l(1) =   0
                l(2) =   0
                l(3) =   1
                l(4) =   1
                l(5) =   2
                l(6) =   2
     Q(r) pseudized with 0 coefficients 


     atomic species   valence    mass     pseudopotential
        Sc            11.00    44.59600     Sc( 1.00)

     24 Sym. Ops., with inversion, found (12 have fractional translation)



   Cartesian axes

     site n.     atom                  positions (alat units)
         1           Sc  tau(   1) = (   0.0000000   0.0000000   0.0000000  )
         2           Sc  tau(   2) = (   0.5000000   0.2886751   0.7970000  )

     number of k points=    95  Marzari-Vanderbilt smearing, width (Ry)=  0.0200
                       cart. coord. in units 2pi/alat
        k(    1) = (   0.0000000   0.0000000   0.0000000), wk =   0.0017361
        k(    2) = (   0.0000000   0.0000000   0.0784191), wk =   0.0034722
        k(    3) = (   0.0000000   0.0000000   0.1568381), wk =   0.0034722
        k(    4) = (   0.0000000   0.0000000   0.2352572), wk =   0.0034722
        k(    5) = (   0.0000000   0.0000000  -0.3136763), wk =   0.0017361
        k(    6) = (   0.0000000   0.0962250   0.0000000), wk =   0.0104167
        k(    7) = (   0.0000000   0.0962250   0.0784191), wk =   0.0208333
        k(    8) = (   0.0000000   0.0962250   0.1568381), wk =   0.0208333
        k(    9) = (   0.0000000   0.0962250   0.2352572), wk =   0.0208333
        k(   10) = (   0.0000000   0.0962250  -0.3136763), wk =   0.0104167
        k(   11) = (   0.0000000   0.1924501   0.0000000), wk =   0.0104167
        k(   12) = (   0.0000000   0.1924501   0.0784191), wk =   0.0208333
        k(   13) = (   0.0000000   0.1924501   0.1568381), wk =   0.0208333
        k(   14) = (   0.0000000   0.1924501   0.2352572), wk =   0.0208333
        k(   15) = (   0.0000000   0.1924501  -0.3136763), wk =   0.0104167
        k(   16) = (   0.0000000   0.2886751   0.0000000), wk =   0.0104167
        k(   17) = (   0.0000000   0.2886751   0.0784191), wk =   0.0208333
        k(   18) = (   0.0000000   0.2886751   0.1568381), wk =   0.0208333
        k(   19) = (   0.0000000   0.2886751   0.2352572), wk =   0.0208333
        k(   20) = (   0.0000000   0.2886751  -0.3136763), wk =   0.0104167
        k(   21) = (   0.0000000   0.3849002   0.0000000), wk =   0.0104167
        k(   22) = (   0.0000000   0.3849002   0.0784191), wk =   0.0208333
        k(   23) = (   0.0000000   0.3849002   0.1568381), wk =   0.0208333
        k(   24) = (   0.0000000   0.3849002   0.2352572), wk =   0.0208333
        k(   25) = (   0.0000000   0.3849002  -0.3136763), wk =   0.0104167
        k(   26) = (   0.0000000   0.4811252   0.0000000), wk =   0.0104167
        k(   27) = (   0.0000000   0.4811252   0.0784191), wk =   0.0208333
        k(   28) = (   0.0000000   0.4811252   0.1568381), wk =   0.0208333
        k(   29) = (   0.0000000   0.4811252   0.2352572), wk =   0.0208333
        k(   30) = (   0.0000000   0.4811252  -0.3136763), wk =   0.0104167
        k(   31) = (   0.0000000  -0.5773503   0.0000000), wk =   0.0052083
        k(   32) = (   0.0000000  -0.5773503   0.0784191), wk =   0.0104167
        k(   33) = (   0.0000000  -0.5773503   0.1568381), wk =   0.0104167
        k(   34) = (   0.0000000  -0.5773503   0.2352572), wk =   0.0104167
        k(   35) = (   0.0000000  -0.5773503  -0.3136763), wk =   0.0052083
        k(   36) = (   0.0833333   0.1443376   0.0000000), wk =   0.0104167
        k(   37) = (   0.0833333   0.1443376   0.0784191), wk =   0.0208333
        k(   38) = (   0.0833333   0.1443376   0.1568381), wk =   0.0208333
        k(   39) = (   0.0833333   0.1443376   0.2352572), wk =   0.0208333
        k(   40) = (   0.0833333   0.1443376  -0.3136763), wk =   0.0104167
        k(   41) = (   0.0833333   0.2405626   0.0000000), wk =   0.0208333
        k(   42) = (   0.0833333   0.2405626   0.0784191), wk =   0.0416667
        k(   43) = (   0.0833333   0.2405626   0.1568381), wk =   0.0416667
        k(   44) = (   0.0833333   0.2405626   0.2352572), wk =   0.0416667
        k(   45) = (   0.0833333   0.2405626  -0.3136763), wk =   0.0208333
        k(   46) = (   0.0833333   0.3367877   0.0000000), wk =   0.0208333
        k(   47) = (   0.0833333   0.3367877   0.0784191), wk =   0.0416667
        k(   48) = (   0.0833333   0.3367877   0.1568381), wk =   0.0416667
        k(   49) = (   0.0833333   0.3367877   0.2352572), wk =   0.0416667
        k(   50) = (   0.0833333   0.3367877  -0.3136763), wk =   0.0208333
        k(   51) = (   0.0833333   0.4330127   0.0000000), wk =   0.0208333
        k(   52) = (   0.0833333   0.4330127   0.0784191), wk =   0.0416667
        k(   53) = (   0.0833333   0.4330127   0.1568381), wk =   0.0416667
        k(   54) = (   0.0833333   0.4330127   0.2352572), wk =   0.0416667
        k(   55) = (   0.0833333   0.4330127  -0.3136763), wk =   0.0208333
        k(   56) = (   0.0833333   0.5292377   0.0000000), wk =   0.0208333
        k(   57) = (   0.0833333   0.5292377   0.0784191), wk =   0.0416667
        k(   58) = (   0.0833333   0.5292377   0.1568381), wk =   0.0416667
        k(   59) = (   0.0833333   0.5292377   0.2352572), wk =   0.0416667
        k(   60) = (   0.0833333   0.5292377  -0.3136763), wk =   0.0208333
        k(   61) = (   0.1666667   0.2886751   0.0000000), wk =   0.0104167
        k(   62) = (   0.1666667   0.2886751   0.0784191), wk =   0.0208333
        k(   63) = (   0.1666667   0.2886751   0.1568381), wk =   0.0208333
        k(   64) = (   0.1666667   0.2886751   0.2352572), wk =   0.0208333
        k(   65) = (   0.1666667   0.2886751  -0.3136763), wk =   0.0104167
        k(   66) = (   0.1666667   0.3849002   0.0000000), wk =   0.0208333
        k(   67) = (   0.1666667   0.3849002   0.0784191), wk =   0.0416667
        k(   68) = (   0.1666667   0.3849002   0.1568381), wk =   0.0416667
        k(   69) = (   0.1666667   0.3849002   0.2352572), wk =   0.0416667
        k(   70) = (   0.1666667   0.3849002  -0.3136763), wk =   0.0208333
        k(   71) = (   0.1666667   0.4811252   0.0000000), wk =   0.0208333
        k(   72) = (   0.1666667   0.4811252   0.0784191), wk =   0.0416667
        k(   73) = (   0.1666667   0.4811252   0.1568381), wk =   0.0416667
        k(   74) = (   0.1666667   0.4811252   0.2352572), wk =   0.0416667
        k(   75) = (   0.1666667   0.4811252  -0.3136763), wk =   0.0208333
        k(   76) = (   0.1666667   0.5773503   0.0000000), wk =   0.0104167
        k(   77) = (   0.1666667   0.5773503   0.0784191), wk =   0.0208333
        k(   78) = (   0.1666667   0.5773503   0.1568381), wk =   0.0208333
        k(   79) = (   0.1666667   0.5773503   0.2352572), wk =   0.0208333
        k(   80) = (   0.1666667   0.5773503  -0.3136763), wk =   0.0104167
        k(   81) = (   0.2500000   0.4330127   0.0000000), wk =   0.0104167
        k(   82) = (   0.2500000   0.4330127   0.0784191), wk =   0.0208333
        k(   83) = (   0.2500000   0.4330127   0.1568381), wk =   0.0208333
        k(   84) = (   0.2500000   0.4330127   0.2352572), wk =   0.0208333
        k(   85) = (   0.2500000   0.4330127  -0.3136763), wk =   0.0104167
        k(   86) = (   0.2500000   0.5292377   0.0000000), wk =   0.0208333
        k(   87) = (   0.2500000   0.5292377   0.0784191), wk =   0.0416667
        k(   88) = (   0.2500000   0.5292377   0.1568381), wk =   0.0416667
        k(   89) = (   0.2500000   0.5292377   0.2352572), wk =   0.0416667
        k(   90) = (   0.2500000   0.5292377  -0.3136763), wk =   0.0208333
        k(   91) = (   0.3333333   0.5773503   0.0000000), wk =   0.0034722
        k(   92) = (   0.3333333   0.5773503   0.0784191), wk =   0.0069444
        k(   93) = (   0.3333333   0.5773503   0.1568381), wk =   0.0069444
        k(   94) = (   0.3333333   0.5773503   0.2352572), wk =   0.0069444
        k(   95) = (   0.3333333   0.5773503  -0.3136763), wk =   0.0034722

     Dense  grid:    32631 G-vectors     FFT dimensions: (  36,  36,  60)

     Smooth grid:    21181 G-vectors     FFT dimensions: (  36,  36,  50)

     Estimated max dynamical RAM per process >      10.05 MB

     Estimated total dynamical RAM >     200.95 MB

     Check: negative core charge=   -0.000015

     Initial potential from superposition of free atoms

     starting charge      21.9956, renormalised to      22.0000
     Starting wfcs are   20 randomized atomic wfcs
     Checking if some PAW data can be deallocated... 

     total cpu time spent up to now is        0.9 secs

     Self-consistent Calculation

     iteration #  1     ecut=    60.00 Ry     beta= 0.70
     Davidson diagonalization with overlap
     ethr =  1.00E-02,  avg # of iterations =  2.5

     Threshold (ethr) on eigenvalues was too large:
     Diagonalizing with lowered threshold

     Davidson diagonalization with overlap
     c_bands:  1 eigenvalues not converged
     c_bands:  3 eigenvalues not converged
     c_bands:  2 eigenvalues not converged
     c_bands:  1 eigenvalues not converged
     c_bands:  1 eigenvalues not converged
     c_bands:  2 eigenvalues not converged
     c_bands:  2 eigenvalues not converged
     c_bands:  3 eigenvalues not converged
     c_bands:  2 eigenvalues not converged
     c_bands:  1 eigenvalues not converged
     c_bands:  1 eigenvalues not converged
     ethr =  3.35E-05,  avg # of iterations = 15.2

     total cpu time spent up to now is        5.9 secs

     total energy              =    -306.86341091 Ry
     estimated scf accuracy    <       0.02013124 Ry

     iteration #  2     ecut=    60.00 Ry     beta= 0.70
     Davidson diagonalization with overlap
     ethr =  9.15E-05,  avg # of iterations =  4.2

     total cpu time spent up to now is        7.4 secs

     total energy              =    -306.86852281 Ry
     estimated scf accuracy    <       0.00178723 Ry

     iteration #  3     ecut=    60.00 Ry     beta= 0.70
     Davidson diagonalization with overlap
     c_bands:  1 eigenvalues not converged
     ethr =  8.12E-06,  avg # of iterations =  7.5

     total cpu time spent up to now is        9.4 secs

     total energy              =    -306.86944643 Ry
     estimated scf accuracy    <       0.00017236 Ry

     iteration #  4     ecut=    60.00 Ry     beta= 0.70
     Davidson diagonalization with overlap
     c_bands:  1 eigenvalues not converged
     ethr =  7.83E-07,  avg # of iterations =  9.0

     total cpu time spent up to now is       11.5 secs

     total energy              =    -306.86959917 Ry
     estimated scf accuracy    <       0.00007658 Ry

     iteration #  5     ecut=    60.00 Ry     beta= 0.70
     Davidson diagonalization with overlap
     ethr =  3.48E-07,  avg # of iterations =  6.9

     total cpu time spent up to now is       13.3 secs

     total energy              =    -306.86964756 Ry
     estimated scf accuracy    <       0.00003514 Ry

     iteration #  6     ecut=    60.00 Ry     beta= 0.70
     Davidson diagonalization with overlap
     ethr =  1.60E-07,  avg # of iterations =  2.3

     total cpu time spent up to now is       14.4 secs

     total energy              =    -306.86963898 Ry
     estimated scf accuracy    <       0.00001693 Ry

     iteration #  7     ecut=    60.00 Ry     beta= 0.70
     Davidson diagonalization with overlap
     ethr =  7.70E-08,  avg # of iterations =  6.6

     total cpu time spent up to now is       16.1 secs

     total energy              =    -306.86964763 Ry
     estimated scf accuracy    <       0.00000056 Ry

     iteration #  8     ecut=    60.00 Ry     beta= 0.70
     Davidson diagonalization with overlap
     c_bands:  1 eigenvalues not converged
     c_bands:  1 eigenvalues not converged
     ethr =  2.54E-09,  avg # of iterations = 13.9

     total cpu time spent up to now is       19.1 secs

     total energy              =    -306.86964934 Ry
     estimated scf accuracy    <       0.00000003 Ry

     iteration #  9     ecut=    60.00 Ry     beta= 0.70
     Davidson diagonalization with overlap
     ethr =  1.31E-10,  avg # of iterations = 11.2

     total cpu time spent up to now is       21.5 secs

     total energy              =    -306.86964938 Ry
     estimated scf accuracy    <       0.00000003 Ry

     iteration # 10     ecut=    60.00 Ry     beta= 0.70
     Davidson diagonalization with overlap
     ethr =  1.31E-10,  avg # of iterations =  3.6

     total cpu time spent up to now is       22.9 secs

     End of self-consistent calculation

          k = 0.0000 0.0000 0.0000 (  2671 PWs)   bands (ev):

   -40.1406 -40.0762 -19.2243 -18.8911 -18.8911 -18.8328 -18.8328 -18.8157
     3.7530   7.1443   9.3013  10.3561  10.3561  10.4662  10.7594

          k = 0.0000 0.0000 0.0784 (  2677 PWs)   bands (ev):

   -40.1382 -40.0787 -19.2094 -18.8889 -18.8889 -18.8349 -18.8349 -18.8317
     3.8542   6.9899   9.2711  10.3134  10.3134  10.4010  10.7040

          k = 0.0000 0.0000 0.1568 (  2689 PWs)   bands (ev):

   -40.1312 -40.0857 -19.1662 -18.8826 -18.8826 -18.8775 -18.8413 -18.8413
     4.1512   6.5435   9.2808  10.2179  10.2509  10.2509  10.5690

          k = 0.0000 0.0000 0.2353 (  2640 PWs)   bands (ev):

   -40.1208 -40.0962 -19.1010 -18.9447 -18.8730 -18.8730 -18.8507 -18.8507
     4.6230   5.9074   9.4225   9.9563  10.2392  10.2394  10.4170

          k = 0.0000 0.0000-0.3137 (  2628 PWs)   bands (ev):

   -40.1085 -40.1085 -19.0233 -19.0233 -18.8618 -18.8618 -18.8618 -18.8618
     5.2305   5.2305   9.6690   9.6691  10.2974  10.2974  10.2974

          k = 0.0000 0.0962 0.0000 (  2663 PWs)   bands (ev):

   -40.1373 -40.0749 -19.2156 -18.9092 -18.8970 -18.8517 -18.8353 -18.8194
     3.9043   7.2741   9.1768  10.0873  10.4658  10.6344  10.6953

          k = 0.0000 0.0962 0.0784 (  2668 PWs)   bands (ev):

   -40.1349 -40.0773 -19.2015 -18.9066 -18.8947 -18.8598 -18.8376 -18.8291
     4.0040   7.1195   9.1498  10.0833  10.4112  10.5084  10.6338

          k = 0.0000 0.0962 0.1568 (  2661 PWs)   bands (ev):

   -40.1282 -40.0841 -19.1609 -18.8996 -18.8931 -18.8880 -18.8454 -18.8444
     4.2969   6.6708   9.1740  10.0891  10.2373  10.3379  10.6532

          k = 0.0000 0.0962 0.2353 (  2656 PWs)   bands (ev):

   -40.1181 -40.0942 -19.0998 -18.9543 -18.8874 -18.8780 -18.8595 -18.8544
     4.7625   6.0351   9.3359   9.9229  10.1358  10.3229  10.3808

          k = 0.0000 0.0962-0.3137 (  2658 PWs)   bands (ev):

   -40.1062 -40.1062 -19.0272 -19.0272 -18.8738 -18.8738 -18.8663 -18.8663
     5.3632   5.3632   9.6050   9.6050  10.2361  10.2362  10.3808

          k = 0.0000 0.1925 0.0000 (  2665 PWs)   bands (ev):

   -40.1280 -40.0713 -19.1905 -18.9593 -18.9131 -18.9028 -18.8428 -18.8307
     4.3435   7.6224   8.8921   9.6762  10.4102  10.7833  10.8160

          k = 0.0000 0.1925 0.0784 (  2652 PWs)   bands (ev):

   -40.1259 -40.0735 -19.1793 -18.9552 -18.9123 -18.9104 -18.8455 -18.8369
     4.4385   7.4681   8.8768   9.6956  10.4012  10.5453  10.6328

          k = 0.0000 0.1925 0.1568 (  2651 PWs)   bands (ev):

   -40.1198 -40.0797 -19.1477 -18.9487 -18.9356 -18.9028 -18.8534 -18.8531
     4.7175   7.0160   8.9393   9.7522  10.1761  10.4101  10.5426

          k = 0.0000 0.1925 0.2353 (  2651 PWs)   bands (ev):

   -40.1106 -40.0889 -19.1003 -18.9891 -18.9220 -18.8915 -18.8754 -18.8646
     5.1620   6.3886   9.1415   9.7405   9.9598  10.2620  10.5360

          k = 0.0000 0.1925-0.3137 (  2650 PWs)   bands (ev):

   -40.0998 -40.0998 -19.0444 -19.0444 -18.8993 -18.8993 -18.8781 -18.8781
     5.7381   5.7381   9.4377   9.4378  10.0812  10.0812  10.6075

          k = 0.0000 0.2887 0.0000 (  2661 PWs)   bands (ev):

   -40.1149 -40.0670 -19.1527 -19.0284 -18.9706 -18.9342 -18.8538 -18.8494
     5.0253   8.0298   8.5854   9.2514  10.1906  10.4710  10.5715

          k = 0.0000 0.2887 0.0784 (  2648 PWs)   bands (ev):

   -40.1131 -40.0688 -19.1491 -19.0197 -18.9797 -18.9312 -18.8568 -18.8527
     5.1106   7.8807   8.5975   9.2822  10.1631  10.4115  10.5847

          k = 0.0000 0.2887 0.1568 (  2643 PWs)   bands (ev):

   -40.1079 -40.0740 -19.1372 -19.0156 -18.9847 -18.9225 -18.8656 -18.8643
     5.3611   7.4456   8.7157   9.3587  10.0174  10.3005  10.6342

          k = 0.0000 0.2887 0.2353 (  2639 PWs)   bands (ev):

   -40.1001 -40.0818 -19.1153 -19.0479 -18.9531 -18.9095 -18.8862 -18.8787
     5.7604   6.8670   8.9426   9.3963   9.8586  10.1309  10.7352

          k = 0.0000 0.2887-0.3137 (  2636 PWs)   bands (ev):

   -40.0910 -40.0910 -19.0841 -19.0841 -18.9172 -18.9172 -18.8941 -18.8941
     6.2786   6.2786   9.2147   9.2148   9.9339   9.9340  10.8879

          k = 0.0000 0.3849 0.0000 (  2648 PWs)   bands (ev):

   -40.1007 -40.0637 -19.1083 -19.0982 -19.0362 -18.9547 -18.8745 -18.8652
     5.8653   8.1904   8.3373   8.9155  10.2162  10.2239  10.3594

          k = 0.0000 0.3849 0.0784 (  2643 PWs)   bands (ev):

   -40.0993 -40.0651 -19.1346 -19.0673 -19.0406 -18.9513 -18.8745 -18.8687
     5.9324   8.0476   8.4074   8.9573  10.0714  10.3026  10.4089

          k = 0.0000 0.3849 0.1568 (  2641 PWs)   bands (ev):

   -40.0953 -40.0691 -19.1512 -19.0799 -19.0070 -18.9417 -18.8788 -18.8784
     6.1289   7.7139   8.5685   9.0455   9.9256  10.2521  10.5539

          k = 0.0000 0.3849 0.2353 (  2643 PWs)   bands (ev):

   -40.0893 -40.0751 -19.1516 -19.1104 -18.9613 -18.9272 -18.8936 -18.8930
     6.4399   7.2839   8.7911   9.0994   9.8384  10.0832  10.7841

          k = 0.0000 0.3849-0.3137 (  2644 PWs)   bands (ev):

   -40.0822 -40.0822 -19.1367 -19.1367 -18.9217 -18.9217 -18.9101 -18.9101
     6.8389   6.8389   9.0066   9.0066   9.8998   9.8998  11.0789

          k = 0.0000 0.4811 0.0000 (  2658 PWs)   bands (ev):

   -40.0889 -40.0626 -19.1496 -19.0831 -19.0670 -18.9694 -18.9017 -18.8739
     6.7175   8.0246   8.1811   8.6647  10.0533  10.2181  10.4295

          k = 0.0000 0.4811 0.0784 (  2650 PWs)   bands (ev):

   -40.0879 -40.0636 -19.1636 -19.0970 -19.0421 -18.9658 -18.8982 -18.8776
     6.7494   7.9282   8.2803   8.6956  10.0581  10.2801  10.3833

          k = 0.0000 0.4811 0.1568 (  2647 PWs)   bands (ev):

   -40.0850 -40.0665 -19.1823 -19.1255 -18.9981 -18.9555 -18.8945 -18.8879
     6.8465   7.7319   8.4733   8.7930  10.0444  10.2601  10.4629

          k = 0.0000 0.4811 0.2353 (  2649 PWs)   bands (ev):

   -40.0808 -40.0707 -19.1885 -19.1561 -18.9547 -18.9401 -18.9035 -18.9004
     7.0091   7.4832   8.7039   8.9035   9.9877  10.1094  10.7559

          k = 0.0000 0.4811-0.3137 (  2644 PWs)   bands (ev):

   -40.0757 -40.0757 -19.1791 -19.1791 -18.9218 -18.9218 -18.9206 -18.9206
     7.2290   7.2290   8.8866   8.8866   9.9908   9.9909  11.1401

          k = 0.0000-0.5774 0.0000 (  2642 PWs)   bands (ev):

   -40.0839 -40.0629 -19.1683 -19.1000 -19.0476 -18.9748 -18.9158 -18.8771
     7.2333   7.7879   8.1285   8.5497   9.9927  10.1689  10.5287

          k = 0.0000-0.5774 0.0784 (  2656 PWs)   bands (ev):

   -40.0831 -40.0637 -19.1795 -19.1128 -19.0288 -18.9711 -18.9106 -18.8809
     7.2134   7.7646   8.2384   8.5475  10.0467  10.2342  10.4577

          k = 0.0000-0.5774 0.1568 (  2642 PWs)   bands (ev):

   -40.0808 -40.0660 -19.1966 -19.1419 -18.9894 -18.9606 -18.9028 -18.8914
     7.1991   7.6715   8.5006   8.5997  10.1415  10.2779  10.4276

          k = 0.0000-0.5774 0.2353 (  2648 PWs)   bands (ev):

   -40.0774 -40.0694 -19.2034 -19.1728 -18.9498 -18.9448 -18.9074 -18.9039
     7.2430   7.5150   8.7382   8.7688  10.0947  10.1485  10.7384

          k = 0.0000-0.5774-0.3137 (  2652 PWs)   bands (ev):

   -40.0734 -40.0734 -19.1951 -19.1951 -18.9262 -18.9262 -18.9197 -18.9197
     7.3556   7.3556   8.8552   8.8552  10.0640  10.0641  11.1483

          k = 0.0833 0.1443 0.0000 (  2659 PWs)   bands (ev):

   -40.1310 -40.0724 -19.1986 -18.9398 -18.9161 -18.8797 -18.8428 -18.8269
     4.1998   7.5155   8.9773   9.7881  10.4909  10.6963  10.7657

          k = 0.0833 0.1443 0.0784 (  2657 PWs)   bands (ev):

   -40.1288 -40.0747 -19.1864 -18.9362 -18.9155 -18.8877 -18.8454 -18.8336
     4.2965   7.3608   8.9574   9.8030  10.4985  10.5144  10.5883

          k = 0.0833 0.1443 0.1568 (  2652 PWs)   bands (ev):

   -40.1225 -40.0810 -19.1515 -18.9294 -18.9258 -18.8977 -18.8526 -18.8494
     4.5803   6.9087   9.0074   9.8514  10.2025  10.4384  10.4962

          k = 0.0833 0.1443 0.2353 (  2652 PWs)   bands (ev):

   -40.1130 -40.0906 -19.0993 -18.9767 -18.9101 -18.8910 -18.8679 -18.8633
     5.0324   6.2767   9.1991   9.8165   9.9930  10.2913  10.4820

          k = 0.0833 0.1443-0.3137 (  2640 PWs)   bands (ev):

   -40.1018 -40.1018 -19.0376 -19.0376 -18.8924 -18.8924 -18.8745 -18.8745
     5.6177   5.6177   9.4923   9.4923  10.1220  10.1221  10.5381

          k = 0.0833 0.2406 0.0000 (  2659 PWs)   bands (ev):

   -40.1198 -40.0685 -19.1671 -18.9948 -18.9611 -18.9138 -18.8557 -18.8419
     4.7624   7.9128   8.6996   9.3770  10.2613  10.4665  10.7566

          k = 0.0833 0.2406 0.0784 (  2655 PWs)   bands (ev):

   -40.1178 -40.0705 -19.1597 -18.9888 -18.9651 -18.9170 -18.8589 -18.8453
     4.8520   7.7601   8.6965   9.4046  10.2707  10.3879  10.6814

          k = 0.0833 0.2406 0.1568 (  2645 PWs)   bands (ev):

   -40.1123 -40.0760 -19.1386 -18.9896 -18.9658 -18.9177 -18.8676 -18.8564
     5.1154   7.3096   8.7927   9.4801  10.0913  10.3067  10.6317

          k = 0.0833 0.2406 0.2353 (  2641 PWs)   bands (ev):

   -40.1040 -40.0844 -19.1060 -19.0239 -18.9411 -18.9111 -18.8808 -18.8740
     5.5355   6.7015   9.0156   9.5242   9.8768  10.1466  10.6836

          k = 0.0833 0.2406-0.3137 (  2644 PWs)   bands (ev):

   -40.0942 -40.0942 -19.0658 -19.0658 -18.9149 -18.9149 -18.8880 -18.8880
     6.0813   6.0813   9.3063   9.3063   9.9520   9.9521  10.7894

          k = 0.0833 0.3368 0.0000 (  2653 PWs)   bands (ev):

   -40.1060 -40.0647 -19.1256 -19.0630 -19.0158 -18.9452 -18.8696 -18.8642
     5.5306   8.2320   8.4453   9.0008  10.1572  10.2104  10.5154

          k = 0.0833 0.3368 0.0784 (  2647 PWs)   bands (ev):

   -40.1045 -40.0663 -19.1324 -19.0492 -19.0192 -18.9451 -18.8744 -18.8631
     5.6071   8.0822   8.4886   9.0385  10.0671  10.2769  10.4982

          k = 0.0833 0.3368 0.1568 (  2640 PWs)   bands (ev):

   -40.1000 -40.0708 -19.1378 -19.0547 -18.9988 -18.9404 -18.8850 -18.8669
     5.8317   7.6843   8.6370   9.1286   9.9244  10.2262  10.5682

          k = 0.0833 0.3368 0.2353 (  2647 PWs)   bands (ev):

   -40.0933 -40.0775 -19.1311 -19.0833 -18.9608 -18.9296 -18.8988 -18.8805
     6.1887   7.1717   8.8626   9.2009   9.7904  10.0337  10.7580

          k = 0.0833 0.3368-0.3137 (  2644 PWs)   bands (ev):

   -40.0854 -40.0854 -19.1115 -19.1115 -18.9310 -18.9310 -18.8996 -18.8996
     6.6502   6.6502   9.0986   9.0986   9.8351   9.8351  10.9951

          k = 0.0833 0.4330 0.0000 (  2651 PWs)   bands (ev):

   -40.0928 -40.0627 -19.1233 -19.0816 -19.0636 -18.9697 -18.8915 -18.8815
     6.3950   8.2047   8.2630   8.7352  10.0427  10.2833  10.3268

          k = 0.0833 0.4330 0.0784 (  2648 PWs)   bands (ev):

   -40.0917 -40.0639 -19.1424 -19.0817 -19.0461 -18.9671 -18.8929 -18.8809
     6.4473   8.0715   8.3576   8.7864   9.9911  10.2669  10.3703

          k = 0.0833 0.4330 0.1568 (  2650 PWs)   bands (ev):

   -40.0884 -40.0672 -19.1622 -19.1058 -19.0044 -18.9569 -18.9019 -18.8796
     6.6006   7.8174   8.5266   8.8994   9.8874  10.1596  10.5232

          k = 0.0833 0.4330 0.2353 (  2645 PWs)   bands (ev):

   -40.0836 -40.0720 -19.1677 -19.1347 -18.9681 -18.9386 -18.9149 -18.8864
     6.8427   7.4929   8.7500   8.9934   9.8002   9.9734  10.7741

          k = 0.0833 0.4330-0.3137 (  2660 PWs)   bands (ev):

   -40.0778 -40.0778 -19.1576 -19.1576 -18.9433 -18.9433 -18.9043 -18.9043
     7.1516   7.1516   8.9481   8.9481   9.8175   9.8175  11.0996

          k = 0.0833 0.5292 0.0000 (  2652 PWs)   bands (ev):

   -40.0839 -40.0629 -19.1582 -19.0912 -19.0479 -18.9831 -18.9155 -18.8884
     7.1548   7.9517   8.1698   8.5484   9.9767  10.1275  10.5240

          k = 0.0833 0.5292 0.0784 (  2642 PWs)   bands (ev):

   -40.0831 -40.0637 -19.1693 -19.1044 -19.0306 -18.9776 -18.9125 -18.8896
     7.1599   7.9001   8.2716   8.5709   9.9917  10.1347  10.5109

          k = 0.0833 0.5292 0.1568 (  2651 PWs)   bands (ev):

   -40.0808 -40.0659 -19.1864 -19.1334 -18.9997 -18.9595 -18.9155 -18.8890
     7.1923   7.7743   8.4900   8.6767   9.9917  10.0727  10.5833

          k = 0.0833 0.5292 0.2353 (  2647 PWs)   bands (ev):

   -40.0774 -40.0694 -19.1934 -19.1638 -18.9734 -18.9348 -18.9263 -18.8910
     7.2769   7.5981   8.7285   8.8509   9.8862   9.9563  10.8263

          k = 0.0833 0.5292-0.3137 (  2644 PWs)   bands (ev):

   -40.0734 -40.0734 -19.1856 -19.1856 -18.9510 -18.9510 -18.9047 -18.9047
     7.4186   7.4186   8.8963   8.8963   9.8485   9.8486  11.1770

          k = 0.1667 0.2887 0.0000 (  2660 PWs)   bands (ev):

   -40.1080 -40.0652 -19.1317 -19.0329 -19.0253 -18.9340 -18.8793 -18.8608
     5.4168   8.2681   8.4999   9.0052  10.1476  10.1661  10.6039

          k = 0.1667 0.2887 0.0784 (  2652 PWs)   bands (ev):

   -40.1063 -40.0668 -19.1335 -19.0294 -19.0196 -18.9391 -18.8823 -18.8600
     5.4965   8.1134   8.5308   9.0388  10.1159  10.1969  10.5494

          k = 0.1667 0.2887 0.1568 (  2642 PWs)   bands (ev):

   -40.1017 -40.0714 -19.1323 -19.0448 -18.9884 -18.9448 -18.8904 -18.8634
     5.7307   7.6856   8.6734   9.1319   9.9663  10.1877  10.5416

          k = 0.1667 0.2887 0.2353 (  2646 PWs)   bands (ev):

   -40.0948 -40.0784 -19.1213 -19.0712 -18.9541 -18.9418 -18.8997 -18.8766
     6.1038   7.1386   8.9010   9.2296   9.7835   9.9928  10.7153

          k = 0.1667 0.2887-0.3137 (  2650 PWs)   bands (ev):

   -40.0866 -40.0866 -19.0995 -19.0995 -18.9371 -18.9371 -18.8959 -18.8959
     6.5880   6.5880   9.1446   9.1446   9.7919   9.7919  10.9387

          k = 0.1667 0.3849 0.0000 (  2647 PWs)   bands (ev):

   -40.0950 -40.0629 -19.0894 -19.0887 -19.0597 -18.9664 -18.9017 -18.8862
     6.2287   8.3495   8.4246   8.7053   9.9541  10.2340  10.3626

          k = 0.1667 0.3849 0.0784 (  2652 PWs)   bands (ev):

   -40.0938 -40.0641 -19.1191 -19.0797 -19.0358 -18.9711 -18.9059 -18.8806
     6.2920   8.2299   8.4844   8.7505   9.9176  10.2579  10.3121

          k = 0.1667 0.3849 0.1568 (  2651 PWs)   bands (ev):

   -40.0903 -40.0676 -19.1395 -19.0936 -18.9975 -18.9720 -18.9144 -18.8749
     6.4773   7.9407   8.6296   8.8595   9.8216  10.0792  10.4378

          k = 0.1667 0.3849 0.2353 (  2648 PWs)   bands (ev):

   -40.0851 -40.0728 -19.1450 -19.1159 -18.9767 -18.9579 -18.9164 -18.8798
     6.7696   7.5532   8.8316   8.9853   9.6932   9.8361  10.6709

          k = 0.1667 0.3849-0.3137 (  2652 PWs)   bands (ev):

   -40.0790 -40.0790 -19.1358 -19.1358 -18.9629 -18.9629 -18.8972 -18.8972
     7.1422   7.1422   9.0002   9.0002   9.6625   9.6625  10.9798

          k = 0.1667 0.4811 0.0000 (  2638 PWs)   bands (ev):

   -40.0840 -40.0628 -19.1316 -19.0760 -19.0486 -18.9978 -18.9168 -18.9148
     7.0559   8.2512   8.2627   8.5374   9.8706  10.1124  10.4918

          k = 0.1667 0.4811 0.0784 (  2651 PWs)   bands (ev):

   -40.0832 -40.0636 -19.1421 -19.0926 -19.0307 -18.9924 -18.9259 -18.9018
     7.0913   8.1505   8.3535   8.6089   9.8424  10.0492  10.5100

          k = 0.1667 0.4811 0.1568 (  2651 PWs)   bands (ev):

   -40.0809 -40.0659 -19.1598 -19.1181 -19.0167 -18.9677 -18.9344 -18.8882
     7.1953   7.9929   8.5153   8.7693   9.7528   9.8749  10.5978

          k = 0.1667 0.4811 0.2353 (  2650 PWs)   bands (ev):

   -40.0775 -40.0693 -19.1686 -19.1444 -19.0020 -18.9654 -18.9192 -18.8846
     7.3597   7.7900   8.7437   8.9378   9.6234   9.6434  10.7853

          k = 0.1667 0.4811-0.3137 (  2656 PWs)   bands (ev):

   -40.0734 -40.0734 -19.1632 -19.1632 -18.9833 -18.9833 -18.8956 -18.8956
     7.5673   7.5673   8.9518   8.9518   9.5289   9.5290  11.0697

          k = 0.1667 0.5774 0.0000 (  2648 PWs)   bands (ev):

   -40.0791 -40.0636 -19.1472 -19.0802 -19.0278 -19.0112 -18.9312 -18.9222
     7.5601   8.0332   8.2350   8.4423   9.9137   9.9464  10.6196

          k = 0.1667 0.5774 0.0784 (  2643 PWs)   bands (ev):

   -40.0785 -40.0642 -19.1555 -19.0940 -19.0332 -18.9878 -18.9377 -18.9112
     7.5525   8.0201   8.3264   8.4750   9.8773   9.9108  10.6329

          k = 0.1667 0.5774 0.1568 (  2656 PWs)   bands (ev):

   -40.0768 -40.0659 -19.1707 -19.1240 -19.0273 -18.9510 -18.9507 -18.8951
     7.5596   7.9584   8.5563   8.5960   9.7697   9.7783  10.7103

          k = 0.1667 0.5774 0.2353 (  2649 PWs)   bands (ev):

   -40.0743 -40.0684 -19.1788 -19.1536 -19.0116 -18.9695 -18.9170 -18.8875
     7.6145   7.8450   8.8030   8.8387   9.5596   9.5974  10.8890

          k = 0.1667 0.5774-0.3137 (  2648 PWs)   bands (ev):

   -40.0713 -40.0713 -19.1732 -19.1732 -18.9909 -18.9909 -18.8947 -18.8947
     7.7176   7.7176   8.9819   8.9819   9.4364   9.4364  11.1585

          k = 0.2500 0.4330 0.0000 (  2640 PWs)   bands (ev):

   -40.0840 -40.0627 -19.1089 -19.0791 -19.0489 -18.9972 -18.9376 -18.9145
     7.0198   8.3156   8.4464   8.4869   9.7947  10.1224  10.4585

          k = 0.2500 0.4330 0.0784 (  2643 PWs)   bands (ev):

   -40.0832 -40.0636 -19.1109 -19.1072 -19.0166 -19.0073 -18.9400 -18.9039
     7.0668   8.2532   8.4835   8.5629   9.7785  10.0179  10.4688

          k = 0.2500 0.4330 0.1568 (  2646 PWs)   bands (ev):

   -40.0809 -40.0659 -19.1356 -19.1202 -19.0185 -18.9836 -18.9395 -18.8881
     7.2023   8.1149   8.5932   8.7211   9.7116   9.7747  10.5257

          k = 0.2500 0.4330 0.2353 (  2655 PWs)   bands (ev):

   -40.0775 -40.0693 -19.1501 -19.1363 -19.0147 -18.9847 -18.9164 -18.8829
     7.4097   7.9098   8.7631   8.8975   9.5171   9.5751  10.6850

          k = 0.2500 0.4330-0.3137 (  2660 PWs)   bands (ev):

   -40.0734 -40.0734 -19.1492 -19.1492 -19.0004 -19.0004 -18.8929 -18.8929
     7.6595   7.6595   8.9310   8.9310   9.4350   9.4350  10.9702

          k = 0.2500 0.5292 0.0000 (  2639 PWs)   bands (ev):

   -40.0757 -40.0647 -19.1241 -19.0680 -19.0319 -19.0126 -18.9603 -18.9436
     7.7126   8.2631   8.3175   8.3812   9.7687   9.8967  10.6824

          k = 0.2500 0.5292 0.0784 (  2642 PWs)   bands (ev):

   -40.0752 -40.0651 -19.1271 -19.0869 -19.0473 -18.9874 -18.9646 -18.9270
     7.7410   8.2364   8.3494   8.4700   9.7282   9.8015  10.6867

          k = 0.2500 0.5292 0.1568 (  2642 PWs)   bands (ev):

   -40.0740 -40.0663 -19.1395 -19.1139 -19.0570 -18.9865 -18.9398 -18.9028
     7.8195   8.1932   8.4729   8.6531   9.5515   9.6142  10.7220

          k = 0.2500 0.5292 0.2353 (  2657 PWs)   bands (ev):

   -40.0723 -40.0681 -19.1518 -19.1380 -19.0470 -19.0053 -18.9083 -18.8884
     7.9291   8.1332   8.6768   8.8905   9.2513   9.4105  10.8361

          k = 0.2500 0.5292-0.3137 (  2654 PWs)   bands (ev):

   -40.0702 -40.0702 -19.1520 -19.1520 -19.0272 -19.0272 -18.8900 -18.8900
     8.0425   8.0425   8.9418   8.9418   9.1602   9.1602  11.0658

          k = 0.3333 0.5774 0.0000 (  2616 PWs)   bands (ev):

   -40.0690 -40.0690 -19.1145 -19.0531 -19.0531 -18.9860 -18.9768 -18.9768
     8.1625   8.1625   8.2659   8.3543   9.7655   9.7655  10.7771

          k = 0.3333 0.5774 0.0784 (  2640 PWs)   bands (ev):

   -40.0690 -40.0690 -19.1098 -19.0747 -19.0747 -18.9910 -18.9551 -18.9551
     8.2080   8.2080   8.2845   8.3727   9.6878   9.6878  10.7757

          k = 0.3333 0.5774 0.1568 (  2667 PWs)   bands (ev):

   -40.0690 -40.0690 -19.1079 -19.1079 -19.0961 -19.0052 -18.9215 -18.9215
     8.3347   8.3385   8.3385   8.4148   9.4866   9.4866  10.7926

          k = 0.3333 0.5774 0.2353 (  2661 PWs)   bands (ev):

   -40.0690 -40.0690 -19.1319 -19.1319 -19.0753 -19.0261 -18.8969 -18.8969
     8.3973   8.4486   8.5268   8.5268   9.2361   9.2361  10.8794

          k = 0.3333 0.5774-0.3137 (  2652 PWs)   bands (ev):

   -40.0690 -40.0690 -19.1404 -19.1404 -19.0508 -19.0508 -18.8880 -18.8880
     8.4433   8.4433   8.6580   8.6580   9.0810   9.0810  11.0839

     the Fermi energy is     8.8194 ev

!    total energy              =    -306.86964938 Ry
     total all-electron energy =     -3050.010420 Ry
     estimated scf accuracy    <          1.3E-09 Ry
     smearing contrib. (-TS)   =      -0.00103853 Ry
     internal energy E=F+TS    =    -306.86861085 Ry

     The total energy is F=E-TS. E is the sum of the following terms:
     one-electron contribution =     -74.39559209 Ry
     hartree contribution      =      42.27972159 Ry
     xc contribution           =     -34.52832597 Ry
     ewald contribution        =    -126.46581261 Ry
     one-center paw contrib.   =    -113.75860176 Ry

     convergence has been achieved in  10 iterations

     Writing all to output data dir sc_rhocut.out/scandium.save/

     init_run     :      0.64s CPU      0.68s WALL (       1 calls)
     electrons    :     20.89s CPU     22.04s WALL (       1 calls)

     Called by init_run:
     wfcinit      :      0.47s CPU      0.50s WALL (       1 calls)
     potinit      :      0.05s CPU      0.05s WALL (       1 calls)
     hinit0       :      0.10s CPU      0.10s WALL (       1 calls)

     Called by electrons:
     c_bands      :     18.71s CPU     19.76s WALL (      11 calls)
     sum_band     :      1.75s CPU      1.82s WALL (      11 calls)
     v_of_rho     :      0.01s CPU      0.01s WALL (      11 calls)
     newd         :      0.11s CPU      0.11s WALL (      11 calls)
     PAW_pot      :      0.33s CPU      0.33s WALL (      11 calls)
     mix_rho      :      0.01s CPU      0.01s WALL (      11 calls)

     Called by c_bands:
     init_us_2    :      0.18s CPU      0.20s WALL (    2185 calls)
     init_us_2:cp :      0.18s CPU      0.19s WALL (    2185 calls)
     cegterg      :     18.30s CPU     18.97s WALL (    1045 calls)

     Called by *egterg:
     cdiaghg      :      2.54s CPU      2.62s WALL (    8810 calls)
     h_psi        :     12.56s CPU     13.08s WALL (    9000 calls)
     s_psi        :      0.62s CPU      0.64s WALL (    9000 calls)
     g_psi        :      0.06s CPU      0.06s WALL (    7860 calls)

     Called by h_psi:
     h_psi:calbec :      0.92s CPU      0.96s WALL (    9000 calls)
     vloc_psi     :     10.94s CPU     11.41s WALL (    9000 calls)
     add_vuspsi   :      0.62s CPU      0.64s WALL (    9000 calls)

     General routines
     calbec       :      1.09s CPU      1.14s WALL (   10045 calls)
     fft          :      0.01s CPU      0.01s WALL (      65 calls)
     ffts         :      0.00s CPU      0.00s WALL (      22 calls)
     fftw         :     11.30s CPU     11.78s WALL (  148767 calls)
     interpolate  :      0.00s CPU      0.00s WALL (      11 calls)

     Parallel routines

     PWSCF        :     21.92s CPU     23.49s WALL


   This run was terminated on:  14:33: 3  26Jul2023            

=------------------------------------------------------------------------------=
   JOB DONE.
=------------------------------------------------------------------------------=
