
     Program PWSCF v.7.2 starts on 26Jul2023 at 15:51:44 

     This program is part of the open-source Quantum ESPRESSO suite
     for quantum simulation of materials; please cite
         "P. Giannozzi et al., J. Phys.:Condens. Matter 21 395502 (2009);
         "P. Giannozzi et al., J. Phys.:Condens. Matter 29 465901 (2017);
         "P. Giannozzi et al., J. Chem. Phys. 152 154105 (2020);
          URL http://www.quantum-espresso.org", 
     in publications or presentations arising from this work. More details at
     http://www.quantum-espresso.org/quote

     Parallel version (MPI), running on    20 processors

     MPI processes distributed on     1 nodes
     302883 MiB available memory on the printing compute node when the environment starts

     Waiting for input...
     Reading input from standard input

     Current dimensions of program PWSCF are:
     Max number of different atomic species (ntypx) = 10
     Max number of k-points (npk) = 120000
     Max angular momentum in pseudopotentials (lmaxx) =  4
     file Sc.pz-spn-kjpaw_psl.1.0.0.UPF: wavefunction(s)  3S 3P 3D renormalized

     R & G space division:  proc/nbgrp/npool/nimage =      20
     Subspace diagonalization in iterative solution of the eigenvalue problem:
     a serial algorithm will be used


     Parallelization info
     --------------------
     sticks:   dense  smooth     PW     G-vecs:    dense   smooth      PW
     Min          42      42     12                 1626     1626     256
     Max          43      43     13                 1637     1637     263
     Sum         859     859    253                32631    32631    5203

     Using Slab Decomposition



     bravais-lattice index     =            4
     lattice parameter (alat)  =       6.2531  a.u.
     unit-cell volume          =     337.5249 (a.u.)^3
     number of atoms/cell      =            2
     number of atomic types    =            1
     number of electrons       =        22.00
     number of Kohn-Sham states=           15
     kinetic-energy cutoff     =      80.0000  Ry
     charge density cutoff     =     320.0000  Ry
     scf convergence threshold =      1.0E-08
     mixing beta               =       0.7000
     number of iterations used =            8  plain     mixing
     Exchange-correlation= SLA  PZ   NOGX NOGC
                           (   1   1   0   0   0   0   0)

     celldm(1)=   6.253104  celldm(2)=   0.000000  celldm(3)=   1.594000
     celldm(4)=   0.000000  celldm(5)=   0.000000  celldm(6)=   0.000000

     crystal axes: (cart. coord. in units of alat)
               a(1) = (   1.000000   0.000000   0.000000 )  
               a(2) = (  -0.500000   0.866025   0.000000 )  
               a(3) = (   0.000000   0.000000   1.594000 )  

     reciprocal axes: (cart. coord. in units 2 pi/alat)
               b(1) = (  1.000000  0.577350 -0.000000 )  
               b(2) = (  0.000000  1.154701  0.000000 )  
               b(3) = (  0.000000 -0.000000  0.627353 )  


     PseudoPot. # 1 for Sc read from file:
     ../../../Sc.pz-spn-kjpaw_psl.1.0.0.UPF
     MD5 check sum: 1f9095df0bb42a6568b4e9f256ff075f
     Pseudo is Projector augmented-wave + core cor, Zval = 11.0
     Generated using 'atomic' code by A. Dal Corso  v.7.1
     Shape of augmentation charge: PSQ
     Using radial grid of 1173 points,  6 beta functions with: 
                l(1) =   0
                l(2) =   0
                l(3) =   1
                l(4) =   1
                l(5) =   2
                l(6) =   2
     Q(r) pseudized with 0 coefficients 


     atomic species   valence    mass     pseudopotential
        Sc            11.00    44.59600     Sc( 1.00)

     24 Sym. Ops., with inversion, found (12 have fractional translation)



   Cartesian axes

     site n.     atom                  positions (alat units)
         1           Sc  tau(   1) = (   0.0000000   0.0000000   0.0000000  )
         2           Sc  tau(   2) = (   0.5000000   0.2886751   0.7970000  )

     number of k points=    21  Marzari-Vanderbilt smearing, width (Ry)=  0.0050
                       cart. coord. in units 2pi/alat
        k(    1) = (   0.0000000   0.0000000   0.0000000), wk =   0.0138889
        k(    2) = (   0.0000000   0.0000000   0.1568381), wk =   0.0277778
        k(    3) = (   0.0000000   0.0000000  -0.3136763), wk =   0.0138889
        k(    4) = (   0.0000000   0.1924501   0.0000000), wk =   0.0833333
        k(    5) = (   0.0000000   0.1924501   0.1568381), wk =   0.1666667
        k(    6) = (   0.0000000   0.1924501  -0.3136763), wk =   0.0833333
        k(    7) = (   0.0000000   0.3849002   0.0000000), wk =   0.0833333
        k(    8) = (   0.0000000   0.3849002   0.1568381), wk =   0.1666667
        k(    9) = (   0.0000000   0.3849002  -0.3136763), wk =   0.0833333
        k(   10) = (   0.0000000  -0.5773503   0.0000000), wk =   0.0416667
        k(   11) = (   0.0000000  -0.5773503   0.1568381), wk =   0.0833333
        k(   12) = (   0.0000000  -0.5773503  -0.3136763), wk =   0.0416667
        k(   13) = (   0.1666667   0.2886751   0.0000000), wk =   0.0833333
        k(   14) = (   0.1666667   0.2886751   0.1568381), wk =   0.1666667
        k(   15) = (   0.1666667   0.2886751  -0.3136763), wk =   0.0833333
        k(   16) = (   0.1666667   0.4811252   0.0000000), wk =   0.1666667
        k(   17) = (   0.1666667   0.4811252   0.1568381), wk =   0.3333333
        k(   18) = (   0.1666667   0.4811252  -0.3136763), wk =   0.1666667
        k(   19) = (   0.3333333   0.5773503   0.0000000), wk =   0.0277778
        k(   20) = (   0.3333333   0.5773503   0.1568381), wk =   0.0555556
        k(   21) = (   0.3333333   0.5773503  -0.3136763), wk =   0.0277778

     Dense  grid:    32631 G-vectors     FFT dimensions: (  36,  36,  60)

     Estimated max dynamical RAM per process >       8.21 MB

     Estimated total dynamical RAM >     164.26 MB

     Check: negative core charge=   -0.000015

     Initial potential from superposition of free atoms

     starting charge      21.9956, renormalised to      22.0000
     Starting wfcs are   20 randomized atomic wfcs
     Checking if some PAW data can be deallocated... 

     total cpu time spent up to now is        0.5 secs

     Self-consistent Calculation

     iteration #  1     ecut=    80.00 Ry     beta= 0.70
     Davidson diagonalization with overlap
     ethr =  1.00E-02,  avg # of iterations =  1.9

     Threshold (ethr) on eigenvalues was too large:
     Diagonalizing with lowered threshold

     Davidson diagonalization with overlap
     c_bands:  2 eigenvalues not converged
     c_bands:  4 eigenvalues not converged
     c_bands:  3 eigenvalues not converged
     c_bands:  1 eigenvalues not converged
     c_bands:  4 eigenvalues not converged
     ethr =  1.82E-05,  avg # of iterations = 17.1

     total cpu time spent up to now is        2.2 secs

     total energy              =    -306.86798991 Ry
     estimated scf accuracy    <       0.01963517 Ry

     iteration #  2     ecut=    80.00 Ry     beta= 0.70
     Davidson diagonalization with overlap
     ethr =  8.93E-05,  avg # of iterations =  4.0

     total cpu time spent up to now is        2.6 secs

     total energy              =    -306.87258886 Ry
     estimated scf accuracy    <       0.00115458 Ry

     iteration #  3     ecut=    80.00 Ry     beta= 0.70
     Davidson diagonalization with overlap
     ethr =  5.25E-06,  avg # of iterations =  9.4

     total cpu time spent up to now is        3.3 secs

     total energy              =    -306.87363105 Ry
     estimated scf accuracy    <       0.00046796 Ry

     iteration #  4     ecut=    80.00 Ry     beta= 0.70
     Davidson diagonalization with overlap
     ethr =  2.13E-06,  avg # of iterations =  5.8

     total cpu time spent up to now is        3.7 secs

     total energy              =    -306.87384340 Ry
     estimated scf accuracy    <       0.00025340 Ry

     iteration #  5     ecut=    80.00 Ry     beta= 0.70
     Davidson diagonalization with overlap
     ethr =  1.15E-06,  avg # of iterations =  3.9

     total cpu time spent up to now is        4.1 secs

     total energy              =    -306.87392006 Ry
     estimated scf accuracy    <       0.00000197 Ry

     iteration #  6     ecut=    80.00 Ry     beta= 0.70
     Davidson diagonalization with overlap
     c_bands:  1 eigenvalues not converged
     c_bands:  1 eigenvalues not converged
     c_bands:  1 eigenvalues not converged
     c_bands:  1 eigenvalues not converged
     c_bands:  1 eigenvalues not converged
     c_bands:  1 eigenvalues not converged
     c_bands:  1 eigenvalues not converged
     c_bands:  1 eigenvalues not converged
     c_bands:  1 eigenvalues not converged
     ethr =  8.94E-09,  avg # of iterations = 18.5

     total cpu time spent up to now is        5.3 secs

     total energy              =    -306.87394373 Ry
     estimated scf accuracy    <       0.00002598 Ry

     iteration #  7     ecut=    80.00 Ry     beta= 0.70
     Davidson diagonalization with overlap
     ethr =  8.94E-09,  avg # of iterations =  6.8

     total cpu time spent up to now is        5.8 secs

     total energy              =    -306.87394695 Ry
     estimated scf accuracy    <       0.00000101 Ry

     iteration #  8     ecut=    80.00 Ry     beta= 0.70
     Davidson diagonalization with overlap
     ethr =  4.57E-09,  avg # of iterations =  3.7

     total cpu time spent up to now is        6.2 secs

     total energy              =    -306.87394727 Ry
     estimated scf accuracy    <       0.00000002 Ry

     iteration #  9     ecut=    80.00 Ry     beta= 0.70
     Davidson diagonalization with overlap
     c_bands:  1 eigenvalues not converged
     c_bands:  1 eigenvalues not converged
     c_bands:  1 eigenvalues not converged
     ethr =  9.47E-11,  avg # of iterations = 17.0

     total cpu time spent up to now is        7.3 secs

     total energy              =    -306.87394746 Ry
     estimated scf accuracy    <       0.00000015 Ry

     iteration # 10     ecut=    80.00 Ry     beta= 0.70
     Davidson diagonalization with overlap
     ethr =  9.47E-11,  avg # of iterations =  5.3

     total cpu time spent up to now is        7.7 secs

     total energy              =    -306.87394747 Ry
     estimated scf accuracy    <       0.00000001 Ry

     iteration # 11     ecut=    80.00 Ry     beta= 0.70
     Davidson diagonalization with overlap
     ethr =  5.49E-11,  avg # of iterations =  3.2

     total cpu time spent up to now is        8.1 secs

     End of self-consistent calculation

          k = 0.0000 0.0000 0.0000 (  4055 PWs)   bands (ev):

   -40.1380 -40.0737 -19.2151 -18.8932 -18.8932 -18.8349 -18.8349 -18.8060
     3.7533   7.1409   9.3034  10.3471  10.3471  10.4659  10.7508

          k = 0.0000 0.0000 0.1568 (  4078 PWs)   bands (ev):

   -40.1286 -40.0831 -19.1569 -18.8847 -18.8847 -18.8677 -18.8434 -18.8434
     4.1515   6.5416   9.2833  10.2186  10.2430  10.2431  10.5610

          k = 0.0000 0.0000-0.3137 (  4060 PWs)   bands (ev):

   -40.1059 -40.1059 -19.0140 -19.0140 -18.8641 -18.8641 -18.8641 -18.8641
     5.2302   5.2302   9.6686   9.6687  10.2894  10.2894  10.2894

          k = 0.0000 0.1925 0.0000 (  4083 PWs)   bands (ev):

   -40.1254 -40.0688 -19.1811 -18.9616 -18.9153 -18.9051 -18.8450 -18.8210
     4.3439   7.6197   8.8920   9.6679  10.4017  10.7739  10.8146

          k = 0.0000 0.1925 0.1568 (  4056 PWs)   bands (ev):

   -40.1172 -40.0771 -19.1389 -18.9489 -18.9356 -18.9051 -18.8553 -18.8476
     4.7176   7.0142   8.9379   9.7439  10.1750  10.4024  10.5369

          k = 0.0000 0.1925-0.3137 (  4076 PWs)   bands (ev):

   -40.0972 -40.0972 -19.0377 -19.0377 -18.8989 -18.8989 -18.8803 -18.8803
     5.7376   5.7376   9.4353   9.4353  10.0743  10.0744  10.6006

          k = 0.0000 0.3849 0.0000 (  4090 PWs)   bands (ev):

   -40.0980 -40.0611 -19.1005 -19.0988 -19.0385 -18.9570 -18.8675 -18.8650
     5.8650   8.1848   8.3343   8.9105  10.2086  10.2231  10.3575

          k = 0.0000 0.3849 0.1568 (  4074 PWs)   bands (ev):

   -40.0926 -40.0665 -19.1485 -19.0803 -19.0030 -18.9440 -18.8807 -18.8709
     6.1280   7.7100   8.5647   9.0407   9.9225  10.2471  10.5518

          k = 0.0000 0.3849-0.3137 (  4070 PWs)   bands (ev):

   -40.0796 -40.0796 -19.1354 -19.1354 -18.9159 -18.9159 -18.9124 -18.9124
     6.8366   6.8366   9.0028   9.0029   9.8956   9.8957  11.0757

          k = 0.0000-0.5774 0.0000 (  4072 PWs)   bands (ev):

   -40.0813 -40.0603 -19.1706 -19.1024 -19.0382 -18.9770 -18.9063 -18.8793
     7.2325   7.7778   8.1237   8.5493   9.9918  10.1669  10.5233

          k = 0.0000-0.5774 0.1568 (  4074 PWs)   bands (ev):

   -40.0782 -40.0634 -19.1969 -19.1427 -18.9821 -18.9628 -18.8947 -18.8938
     7.1960   7.6633   8.4981   8.5982  10.1405  10.2731  10.4254

          k = 0.0000-0.5774-0.3137 (  4100 PWs)   bands (ev):

   -40.0708 -40.0708 -19.1949 -19.1949 -18.9284 -18.9284 -18.9127 -18.9127
     7.3503   7.3503   8.8526   8.8526  10.0621  10.0626  11.1466

          k = 0.1667 0.2887 0.0000 (  4067 PWs)   bands (ev):

   -40.1053 -40.0626 -19.1222 -19.0352 -19.0275 -18.9362 -18.8816 -18.8511
     5.4168   8.2661   8.4978   8.9965  10.1380  10.1644  10.6030

          k = 0.1667 0.2887 0.1568 (  4082 PWs)   bands (ev):

   -40.0991 -40.0689 -19.1264 -19.0455 -18.9874 -18.9457 -18.8926 -18.8569
     5.7305   7.6835   8.6705   9.1233   9.9648  10.1803  10.5384

          k = 0.1667 0.2887-0.3137 (  4072 PWs)   bands (ev):

   -40.0840 -40.0840 -19.0968 -19.0968 -18.9364 -18.9364 -18.8944 -18.8944
     6.5869   6.5869   9.1401   9.1402   9.7870   9.7870  10.9349

          k = 0.1667 0.4811 0.0000 (  4088 PWs)   bands (ev):

   -40.0814 -40.0602 -19.1340 -19.0783 -19.0392 -19.0001 -18.9191 -18.9053
     7.0550   8.2430   8.2582   8.5352   9.8688  10.1109  10.4834

          k = 0.1667 0.4811 0.1568 (  4084 PWs)   bands (ev):

   -40.0783 -40.0633 -19.1595 -19.1184 -19.0157 -18.9647 -18.9347 -18.8821
     7.1934   7.9872   8.5101   8.7672   9.7508   9.8717  10.5918

          k = 0.1667 0.4811-0.3137 (  4086 PWs)   bands (ev):

   -40.0708 -40.0708 -19.1624 -19.1624 -18.9839 -18.9839 -18.8908 -18.8908
     7.5634   7.5634   8.9485   8.9486   9.5258   9.5262  11.0659

          k = 0.3333 0.5774 0.0000 (  4077 PWs)   bands (ev):

   -40.0664 -40.0664 -19.1169 -19.0555 -19.0555 -18.9885 -18.9674 -18.9674
     8.1616   8.1616   8.2556   8.3490   9.7640   9.7640  10.7663

          k = 0.3333 0.5774 0.1568 (  4077 PWs)   bands (ev):

   -40.0664 -40.0664 -19.1068 -19.1068 -19.0983 -19.0075 -18.9152 -18.9152
     8.3255   8.3379   8.3379   8.4092   9.4851   9.4851  10.7833

          k = 0.3333 0.5774-0.3137 (  4128 PWs)   bands (ev):

   -40.0664 -40.0664 -19.1387 -19.1387 -19.0531 -19.0531 -18.8825 -18.8825
     8.4356   8.4356   8.6575   8.6575   9.0788   9.0788  11.0776

     the Fermi energy is     8.8306 ev

!    total energy              =    -306.87394747 Ry
     total all-electron energy =     -3050.014718 Ry
     estimated scf accuracy    <          5.4E-10 Ry
     smearing contrib. (-TS)   =       0.00008931 Ry
     internal energy E=F+TS    =    -306.87403678 Ry

     The total energy is F=E-TS. E is the sum of the following terms:
     one-electron contribution =     -74.41085886 Ry
     hartree contribution      =      42.28679914 Ry
     xc contribution           =     -34.52715334 Ry
     ewald contribution        =    -126.46581261 Ry
     one-center paw contrib.   =    -113.75701110 Ry

     convergence has been achieved in  11 iterations

     Writing all to output data dir sc_smearing.out/scandium.save/

     init_run     :      0.28s CPU      0.30s WALL (       1 calls)
     electrons    :      7.29s CPU      7.61s WALL (       1 calls)

     Called by init_run:
     wfcinit      :      0.13s CPU      0.14s WALL (       1 calls)
     potinit      :      0.05s CPU      0.05s WALL (       1 calls)
     hinit0       :      0.08s CPU      0.09s WALL (       1 calls)

     Called by electrons:
     c_bands      :      6.23s CPU      6.51s WALL (      12 calls)
     sum_band     :      0.60s CPU      0.62s WALL (      12 calls)
     v_of_rho     :      0.01s CPU      0.01s WALL (      12 calls)
     newd         :      0.11s CPU      0.11s WALL (      12 calls)
     PAW_pot      :      0.36s CPU      0.36s WALL (      12 calls)
     mix_rho      :      0.01s CPU      0.01s WALL (      12 calls)

     Called by c_bands:
     init_us_2    :      0.07s CPU      0.07s WALL (     525 calls)
     init_us_2:cp :      0.07s CPU      0.07s WALL (     525 calls)
     cegterg      :      6.09s CPU      6.26s WALL (     252 calls)

     Called by *egterg:
     cdiaghg      :      0.67s CPU      0.68s WALL (    2260 calls)
     h_psi        :      4.06s CPU      4.19s WALL (    2302 calls)
     s_psi        :      0.27s CPU      0.27s WALL (    2302 calls)
     g_psi        :      0.03s CPU      0.03s WALL (    2029 calls)

     Called by h_psi:
     h_psi:calbec :      0.33s CPU      0.35s WALL (    2302 calls)
     vloc_psi     :      3.44s CPU      3.55s WALL (    2302 calls)
     add_vuspsi   :      0.27s CPU      0.28s WALL (    2302 calls)

     General routines
     calbec       :      0.39s CPU      0.41s WALL (    2554 calls)
     fft          :      0.01s CPU      0.01s WALL (      49 calls)
     ffts         :      0.00s CPU      0.00s WALL (      12 calls)
     fftw         :      3.53s CPU      3.64s WALL (   41598 calls)

     Parallel routines

     PWSCF        :      7.80s CPU      8.34s WALL


   This run was terminated on:  15:51:52  26Jul2023            

=------------------------------------------------------------------------------=
   JOB DONE.
=------------------------------------------------------------------------------=
