
     Program PWSCF v.7.2 starts on 26Jul2023 at 15:18:12 

     This program is part of the open-source Quantum ESPRESSO suite
     for quantum simulation of materials; please cite
         "P. Giannozzi et al., J. Phys.:Condens. Matter 21 395502 (2009);
         "P. Giannozzi et al., J. Phys.:Condens. Matter 29 465901 (2017);
         "P. Giannozzi et al., J. Chem. Phys. 152 154105 (2020);
          URL http://www.quantum-espresso.org", 
     in publications or presentations arising from this work. More details at
     http://www.quantum-espresso.org/quote

     Parallel version (MPI), running on    20 processors

     MPI processes distributed on     1 nodes
     309225 MiB available memory on the printing compute node when the environment starts

     Waiting for input...
     Reading input from standard input

     Current dimensions of program PWSCF are:
     Max number of different atomic species (ntypx) = 10
     Max number of k-points (npk) = 120000
     Max angular momentum in pseudopotentials (lmaxx) =  4
     file Sc.pz-spn-kjpaw_psl.1.0.0.UPF: wavefunction(s)  3S 3P 3D renormalized

     R & G space division:  proc/nbgrp/npool/nimage =      20
     Subspace diagonalization in iterative solution of the eigenvalue problem:
     a serial algorithm will be used


     Parallelization info
     --------------------
     sticks:   dense  smooth     PW     G-vecs:    dense   smooth      PW
     Min          42      42     12                 1626     1626     256
     Max          43      43     13                 1637     1637     263
     Sum         859     859    253                32631    32631    5203

     Using Slab Decomposition



     bravais-lattice index     =            4
     lattice parameter (alat)  =       6.2531  a.u.
     unit-cell volume          =     337.5249 (a.u.)^3
     number of atoms/cell      =            2
     number of atomic types    =            1
     number of electrons       =        22.00
     number of Kohn-Sham states=           15
     kinetic-energy cutoff     =      80.0000  Ry
     charge density cutoff     =     320.0000  Ry
     scf convergence threshold =      1.0E-08
     mixing beta               =       0.7000
     number of iterations used =            8  plain     mixing
     Exchange-correlation= SLA  PZ   NOGX NOGC
                           (   1   1   0   0   0   0   0)

     celldm(1)=   6.253104  celldm(2)=   0.000000  celldm(3)=   1.594000
     celldm(4)=   0.000000  celldm(5)=   0.000000  celldm(6)=   0.000000

     crystal axes: (cart. coord. in units of alat)
               a(1) = (   1.000000   0.000000   0.000000 )  
               a(2) = (  -0.500000   0.866025   0.000000 )  
               a(3) = (   0.000000   0.000000   1.594000 )  

     reciprocal axes: (cart. coord. in units 2 pi/alat)
               b(1) = (  1.000000  0.577350 -0.000000 )  
               b(2) = (  0.000000  1.154701  0.000000 )  
               b(3) = (  0.000000 -0.000000  0.627353 )  


     PseudoPot. # 1 for Sc read from file:
     ../../../Sc.pz-spn-kjpaw_psl.1.0.0.UPF
     MD5 check sum: 1f9095df0bb42a6568b4e9f256ff075f
     Pseudo is Projector augmented-wave + core cor, Zval = 11.0
     Generated using 'atomic' code by A. Dal Corso  v.7.1
     Shape of augmentation charge: PSQ
     Using radial grid of 1173 points,  6 beta functions with: 
                l(1) =   0
                l(2) =   0
                l(3) =   1
                l(4) =   1
                l(5) =   2
                l(6) =   2
     Q(r) pseudized with 0 coefficients 


     atomic species   valence    mass     pseudopotential
        Sc            11.00    44.59600     Sc( 1.00)

     24 Sym. Ops., with inversion, found (12 have fractional translation)



   Cartesian axes

     site n.     atom                  positions (alat units)
         1           Sc  tau(   1) = (   0.0000000   0.0000000   0.0000000  )
         2           Sc  tau(   2) = (   0.5000000   0.2886751   0.7970000  )

     number of k points=   162  Marzari-Vanderbilt smearing, width (Ry)=  0.0100

     Number of k-points >= 100: set verbosity='high' to print them.

     Dense  grid:    32631 G-vectors     FFT dimensions: (  36,  36,  60)

     Estimated max dynamical RAM per process >      14.76 MB

     Estimated total dynamical RAM >     295.28 MB

     Check: negative core charge=   -0.000015

     Initial potential from superposition of free atoms

     starting charge      21.9956, renormalised to      22.0000
     Starting wfcs are   20 randomized atomic wfcs
     Checking if some PAW data can be deallocated... 

     total cpu time spent up to now is        1.4 secs

     Self-consistent Calculation

     iteration #  1     ecut=    80.00 Ry     beta= 0.70
     Davidson diagonalization with overlap
     ethr =  1.00E-02,  avg # of iterations =  2.1

     Threshold (ethr) on eigenvalues was too large:
     Diagonalizing with lowered threshold

     Davidson diagonalization with overlap
     c_bands:  2 eigenvalues not converged
     c_bands:  1 eigenvalues not converged
     c_bands:  1 eigenvalues not converged
     c_bands:  1 eigenvalues not converged
     c_bands:  3 eigenvalues not converged
     c_bands:  2 eigenvalues not converged
     c_bands:  1 eigenvalues not converged
     c_bands:  1 eigenvalues not converged
     c_bands:  4 eigenvalues not converged
     c_bands:  4 eigenvalues not converged
     c_bands:  5 eigenvalues not converged
     c_bands:  1 eigenvalues not converged
     c_bands:  1 eigenvalues not converged
     c_bands:  2 eigenvalues not converged
     c_bands:  4 eigenvalues not converged
     c_bands:  4 eigenvalues not converged
     c_bands:  1 eigenvalues not converged
     c_bands:  2 eigenvalues not converged
     c_bands:  1 eigenvalues not converged
     c_bands:  1 eigenvalues not converged
     c_bands:  3 eigenvalues not converged
     c_bands:  4 eigenvalues not converged
     c_bands:  4 eigenvalues not converged
     c_bands:  3 eigenvalues not converged
     c_bands:  5 eigenvalues not converged
     c_bands:  4 eigenvalues not converged
     c_bands:  3 eigenvalues not converged
     c_bands:  5 eigenvalues not converged
     c_bands:  1 eigenvalues not converged
     c_bands:  2 eigenvalues not converged
     c_bands:  1 eigenvalues not converged
     c_bands:  3 eigenvalues not converged
     c_bands:  2 eigenvalues not converged
     c_bands:  4 eigenvalues not converged
     c_bands:  5 eigenvalues not converged
     c_bands:  1 eigenvalues not converged
     c_bands:  1 eigenvalues not converged
     c_bands:  3 eigenvalues not converged
     c_bands:  2 eigenvalues not converged
     c_bands:  1 eigenvalues not converged
     ethr =  1.95E-05,  avg # of iterations = 17.1

     total cpu time spent up to now is       13.9 secs

     total energy              =    -306.86668430 Ry
     estimated scf accuracy    <       0.02005764 Ry

     iteration #  2     ecut=    80.00 Ry     beta= 0.70
     Davidson diagonalization with overlap
     ethr =  9.12E-05,  avg # of iterations =  4.3

     total cpu time spent up to now is       16.7 secs

     total energy              =    -306.87154346 Ry
     estimated scf accuracy    <       0.00131615 Ry

     iteration #  3     ecut=    80.00 Ry     beta= 0.70
     Davidson diagonalization with overlap
     c_bands:  2 eigenvalues not converged
     c_bands:  1 eigenvalues not converged
     c_bands:  1 eigenvalues not converged
     ethr =  5.98E-06,  avg # of iterations =  8.3

     total cpu time spent up to now is       21.0 secs

     total energy              =    -306.87261061 Ry
     estimated scf accuracy    <       0.00035529 Ry

     iteration #  4     ecut=    80.00 Ry     beta= 0.70
     Davidson diagonalization with overlap
     c_bands:  1 eigenvalues not converged
     c_bands:  1 eigenvalues not converged
     c_bands:  2 eigenvalues not converged
     ethr =  1.61E-06,  avg # of iterations =  6.6

     total cpu time spent up to now is       24.6 secs

     total energy              =    -306.87279949 Ry
     estimated scf accuracy    <       0.00018757 Ry

     iteration #  5     ecut=    80.00 Ry     beta= 0.70
     Davidson diagonalization with overlap
     c_bands:  1 eigenvalues not converged
     ethr =  8.53E-07,  avg # of iterations =  6.1

     total cpu time spent up to now is       28.1 secs

     total energy              =    -306.87288958 Ry
     estimated scf accuracy    <       0.00001515 Ry

     iteration #  6     ecut=    80.00 Ry     beta= 0.70
     Davidson diagonalization with overlap
     c_bands:  1 eigenvalues not converged
     ethr =  6.89E-08,  avg # of iterations =  9.6

     total cpu time spent up to now is       32.1 secs

     total energy              =    -306.87289528 Ry
     estimated scf accuracy    <       0.00002299 Ry

     iteration #  7     ecut=    80.00 Ry     beta= 0.70
     Davidson diagonalization with overlap
     ethr =  6.89E-08,  avg # of iterations =  4.5

     total cpu time spent up to now is       34.9 secs

     total energy              =    -306.87289968 Ry
     estimated scf accuracy    <       0.00000035 Ry

     iteration #  8     ecut=    80.00 Ry     beta= 0.70
     Davidson diagonalization with overlap
     c_bands:  1 eigenvalues not converged
     ethr =  1.60E-09,  avg # of iterations = 15.4

     total cpu time spent up to now is       41.7 secs

     total energy              =    -306.87290208 Ry
     estimated scf accuracy    <       0.00000071 Ry

     iteration #  9     ecut=    80.00 Ry     beta= 0.70
     Davidson diagonalization with overlap
     ethr =  1.60E-09,  avg # of iterations =  1.1

     total cpu time spent up to now is       43.7 secs

     total energy              =    -306.87290169 Ry
     estimated scf accuracy    <       0.00000062 Ry

     iteration # 10     ecut=    80.00 Ry     beta= 0.70
     Davidson diagonalization with overlap
     ethr =  1.60E-09,  avg # of iterations =  5.6

     total cpu time spent up to now is       46.8 secs

     End of self-consistent calculation

     Number of k-points >= 100: set verbosity='high' to print the bands.

     the Fermi energy is     8.8117 ev

!    total energy              =    -306.87290186 Ry
     total all-electron energy =     -3050.013673 Ry
     estimated scf accuracy    <          1.5E-09 Ry
     smearing contrib. (-TS)   =      -0.00014918 Ry
     internal energy E=F+TS    =    -306.87275268 Ry

     The total energy is F=E-TS. E is the sum of the following terms:
     one-electron contribution =     -74.40632717 Ry
     hartree contribution      =      42.28336581 Ry
     xc contribution           =     -34.52687579 Ry
     ewald contribution        =    -126.46581261 Ry
     one-center paw contrib.   =    -113.75710292 Ry

     convergence has been achieved in  10 iterations

     Writing all to output data dir sc_smearing.out/scandium.save/

     init_run     :      1.15s CPU      1.18s WALL (       1 calls)
     electrons    :     43.27s CPU     45.49s WALL (       1 calls)

     Called by init_run:
     wfcinit      :      0.96s CPU      1.00s WALL (       1 calls)
     potinit      :      0.05s CPU      0.05s WALL (       1 calls)
     hinit0       :      0.11s CPU      0.11s WALL (       1 calls)

     Called by electrons:
     c_bands      :     39.58s CPU     41.61s WALL (      11 calls)
     sum_band     :      3.27s CPU      3.38s WALL (      11 calls)
     v_of_rho     :      0.01s CPU      0.01s WALL (      11 calls)
     newd         :      0.10s CPU      0.10s WALL (      11 calls)
     PAW_pot      :      0.33s CPU      0.33s WALL (      11 calls)
     mix_rho      :      0.01s CPU      0.01s WALL (      11 calls)

     Called by c_bands:
     init_us_2    :      0.42s CPU      0.45s WALL (    3726 calls)
     init_us_2:cp :      0.41s CPU      0.44s WALL (    3726 calls)
     cegterg      :     38.61s CPU     39.75s WALL (    1784 calls)

     Called by *egterg:
     cdiaghg      :      4.40s CPU      4.51s WALL (   14713 calls)
     h_psi        :     25.87s CPU     26.76s WALL (   15039 calls)
     s_psi        :      1.72s CPU      1.77s WALL (   15039 calls)
     g_psi        :      0.17s CPU      0.17s WALL (   13093 calls)

     Called by h_psi:
     h_psi:calbec :      2.13s CPU      2.21s WALL (   15039 calls)
     vloc_psi     :     21.86s CPU     22.62s WALL (   15039 calls)
     add_vuspsi   :      1.74s CPU      1.80s WALL (   15039 calls)

     General routines
     calbec       :      2.52s CPU      2.62s WALL (   16821 calls)
     fft          :      0.01s CPU      0.01s WALL (      45 calls)
     ffts         :      0.00s CPU      0.00s WALL (      11 calls)
     fftw         :     22.48s CPU     23.26s WALL (  268480 calls)

     Parallel routines

     PWSCF        :     44.96s CPU     47.79s WALL


   This run was terminated on:  15:19: 0  26Jul2023            

=------------------------------------------------------------------------------=
   JOB DONE.
=------------------------------------------------------------------------------=
