
     Program PWSCF v.7.2 starts on 19Jun2023 at 10:56:46 

     This program is part of the open-source Quantum ESPRESSO suite
     for quantum simulation of materials; please cite
         "P. Giannozzi et al., J. Phys.:Condens. Matter 21 395502 (2009);
         "P. Giannozzi et al., J. Phys.:Condens. Matter 29 465901 (2017);
         "P. Giannozzi et al., J. Chem. Phys. 152 154105 (2020);
          URL http://www.quantum-espresso.org", 
     in publications or presentations arising from this work. More details at
     http://www.quantum-espresso.org/quote

     Parallel version (MPI), running on     1 processors

     MPI processes distributed on     1 nodes
     317442 MiB available memory on the printing compute node when the environment starts

     Waiting for input...
     Reading input from standard input

     Current dimensions of program PWSCF are:
     Max number of different atomic species (ntypx) = 10
     Max number of k-points (npk) = 120000
     Max angular momentum in pseudopotentials (lmaxx) =  4

     File sc_vcrelax.out/scandium.update deleted, as requested

     File sc_vcrelax.out/scandium.bfgs deleted, as requested
     file Sc.pz-spn-kjpaw_psl.1.0.0.UPF: wavefunction(s)  3S 3P 3D renormalized

     Subspace diagonalization in iterative solution of the eigenvalue problem:
     a serial algorithm will be used


     G-vector sticks info
     --------------------
     sticks:   dense  smooth     PW     G-vecs:    dense   smooth      PW
     Sum         859     859    253                32631    32631    5203

     Using Slab Decomposition



     bravais-lattice index     =            4
     lattice parameter (alat)  =       6.2531  a.u.
     unit-cell volume          =     337.5249 (a.u.)^3
     number of atoms/cell      =            2
     number of atomic types    =            1
     number of electrons       =        22.00
     number of Kohn-Sham states=           15
     kinetic-energy cutoff     =      80.0000  Ry
     charge density cutoff     =     320.0000  Ry
     scf convergence threshold =      1.0E-08
     mixing beta               =       0.7000
     number of iterations used =            8  plain     mixing
     energy convergence thresh.=      1.0E-04
     force convergence thresh. =      1.0E-03
     press convergence thresh. =      5.0E-01
     Exchange-correlation= SLA  PZ   NOGX NOGC
                           (   1   1   0   0   0   0   0)
     nstep                     =           50


     celldm(1)=   6.253104  celldm(2)=   0.000000  celldm(3)=   1.594000
     celldm(4)=   0.000000  celldm(5)=   0.000000  celldm(6)=   0.000000

     crystal axes: (cart. coord. in units of alat)
               a(1) = (   1.000000   0.000000   0.000000 )  
               a(2) = (  -0.500000   0.866025   0.000000 )  
               a(3) = (   0.000000   0.000000   1.594000 )  

     reciprocal axes: (cart. coord. in units 2 pi/alat)
               b(1) = (  1.000000  0.577350 -0.000000 )  
               b(2) = (  0.000000  1.154701  0.000000 )  
               b(3) = (  0.000000 -0.000000  0.627353 )  


     PseudoPot. # 1 for Sc read from file:
     ../../../Sc.pz-spn-kjpaw_psl.1.0.0.UPF
     MD5 check sum: 1f9095df0bb42a6568b4e9f256ff075f
     Pseudo is Projector augmented-wave + core cor, Zval = 11.0
     Generated using 'atomic' code by A. Dal Corso  v.7.1
     Shape of augmentation charge: PSQ
     Using radial grid of 1173 points,  6 beta functions with: 
                l(1) =   0
                l(2) =   0
                l(3) =   1
                l(4) =   1
                l(5) =   2
                l(6) =   2
     Q(r) pseudized with 0 coefficients 


     atomic species   valence    mass     pseudopotential
        Sc            11.00    44.59600     Sc( 1.00)

     24 Sym. Ops., with inversion, found (12 have fractional translation)



   Cartesian axes

     site n.     atom                  positions (alat units)
         1           Sc  tau(   1) = (   0.0000000   0.0000000   0.0000000  )
         2           Sc  tau(   2) = (   0.5000000   0.2886751   0.7970000  )

     number of k points=    95  Marzari-Vanderbilt smearing, width (Ry)=  0.0200
                       cart. coord. in units 2pi/alat
        k(    1) = (   0.0000000   0.0000000   0.0000000), wk =   0.0017361
        k(    2) = (   0.0000000   0.0000000   0.0784191), wk =   0.0034722
        k(    3) = (   0.0000000   0.0000000   0.1568381), wk =   0.0034722
        k(    4) = (   0.0000000   0.0000000   0.2352572), wk =   0.0034722
        k(    5) = (   0.0000000   0.0000000  -0.3136763), wk =   0.0017361
        k(    6) = (   0.0000000   0.0962250   0.0000000), wk =   0.0104167
        k(    7) = (   0.0000000   0.0962250   0.0784191), wk =   0.0208333
        k(    8) = (   0.0000000   0.0962250   0.1568381), wk =   0.0208333
        k(    9) = (   0.0000000   0.0962250   0.2352572), wk =   0.0208333
        k(   10) = (   0.0000000   0.0962250  -0.3136763), wk =   0.0104167
        k(   11) = (   0.0000000   0.1924501   0.0000000), wk =   0.0104167
        k(   12) = (   0.0000000   0.1924501   0.0784191), wk =   0.0208333
        k(   13) = (   0.0000000   0.1924501   0.1568381), wk =   0.0208333
        k(   14) = (   0.0000000   0.1924501   0.2352572), wk =   0.0208333
        k(   15) = (   0.0000000   0.1924501  -0.3136763), wk =   0.0104167
        k(   16) = (   0.0000000   0.2886751   0.0000000), wk =   0.0104167
        k(   17) = (   0.0000000   0.2886751   0.0784191), wk =   0.0208333
        k(   18) = (   0.0000000   0.2886751   0.1568381), wk =   0.0208333
        k(   19) = (   0.0000000   0.2886751   0.2352572), wk =   0.0208333
        k(   20) = (   0.0000000   0.2886751  -0.3136763), wk =   0.0104167
        k(   21) = (   0.0000000   0.3849002   0.0000000), wk =   0.0104167
        k(   22) = (   0.0000000   0.3849002   0.0784191), wk =   0.0208333
        k(   23) = (   0.0000000   0.3849002   0.1568381), wk =   0.0208333
        k(   24) = (   0.0000000   0.3849002   0.2352572), wk =   0.0208333
        k(   25) = (   0.0000000   0.3849002  -0.3136763), wk =   0.0104167
        k(   26) = (   0.0000000   0.4811252   0.0000000), wk =   0.0104167
        k(   27) = (   0.0000000   0.4811252   0.0784191), wk =   0.0208333
        k(   28) = (   0.0000000   0.4811252   0.1568381), wk =   0.0208333
        k(   29) = (   0.0000000   0.4811252   0.2352572), wk =   0.0208333
        k(   30) = (   0.0000000   0.4811252  -0.3136763), wk =   0.0104167
        k(   31) = (   0.0000000  -0.5773503   0.0000000), wk =   0.0052083
        k(   32) = (   0.0000000  -0.5773503   0.0784191), wk =   0.0104167
        k(   33) = (   0.0000000  -0.5773503   0.1568381), wk =   0.0104167
        k(   34) = (   0.0000000  -0.5773503   0.2352572), wk =   0.0104167
        k(   35) = (   0.0000000  -0.5773503  -0.3136763), wk =   0.0052083
        k(   36) = (   0.0833333   0.1443376   0.0000000), wk =   0.0104167
        k(   37) = (   0.0833333   0.1443376   0.0784191), wk =   0.0208333
        k(   38) = (   0.0833333   0.1443376   0.1568381), wk =   0.0208333
        k(   39) = (   0.0833333   0.1443376   0.2352572), wk =   0.0208333
        k(   40) = (   0.0833333   0.1443376  -0.3136763), wk =   0.0104167
        k(   41) = (   0.0833333   0.2405626   0.0000000), wk =   0.0208333
        k(   42) = (   0.0833333   0.2405626   0.0784191), wk =   0.0416667
        k(   43) = (   0.0833333   0.2405626   0.1568381), wk =   0.0416667
        k(   44) = (   0.0833333   0.2405626   0.2352572), wk =   0.0416667
        k(   45) = (   0.0833333   0.2405626  -0.3136763), wk =   0.0208333
        k(   46) = (   0.0833333   0.3367877   0.0000000), wk =   0.0208333
        k(   47) = (   0.0833333   0.3367877   0.0784191), wk =   0.0416667
        k(   48) = (   0.0833333   0.3367877   0.1568381), wk =   0.0416667
        k(   49) = (   0.0833333   0.3367877   0.2352572), wk =   0.0416667
        k(   50) = (   0.0833333   0.3367877  -0.3136763), wk =   0.0208333
        k(   51) = (   0.0833333   0.4330127   0.0000000), wk =   0.0208333
        k(   52) = (   0.0833333   0.4330127   0.0784191), wk =   0.0416667
        k(   53) = (   0.0833333   0.4330127   0.1568381), wk =   0.0416667
        k(   54) = (   0.0833333   0.4330127   0.2352572), wk =   0.0416667
        k(   55) = (   0.0833333   0.4330127  -0.3136763), wk =   0.0208333
        k(   56) = (   0.0833333   0.5292377   0.0000000), wk =   0.0208333
        k(   57) = (   0.0833333   0.5292377   0.0784191), wk =   0.0416667
        k(   58) = (   0.0833333   0.5292377   0.1568381), wk =   0.0416667
        k(   59) = (   0.0833333   0.5292377   0.2352572), wk =   0.0416667
        k(   60) = (   0.0833333   0.5292377  -0.3136763), wk =   0.0208333
        k(   61) = (   0.1666667   0.2886751   0.0000000), wk =   0.0104167
        k(   62) = (   0.1666667   0.2886751   0.0784191), wk =   0.0208333
        k(   63) = (   0.1666667   0.2886751   0.1568381), wk =   0.0208333
        k(   64) = (   0.1666667   0.2886751   0.2352572), wk =   0.0208333
        k(   65) = (   0.1666667   0.2886751  -0.3136763), wk =   0.0104167
        k(   66) = (   0.1666667   0.3849002   0.0000000), wk =   0.0208333
        k(   67) = (   0.1666667   0.3849002   0.0784191), wk =   0.0416667
        k(   68) = (   0.1666667   0.3849002   0.1568381), wk =   0.0416667
        k(   69) = (   0.1666667   0.3849002   0.2352572), wk =   0.0416667
        k(   70) = (   0.1666667   0.3849002  -0.3136763), wk =   0.0208333
        k(   71) = (   0.1666667   0.4811252   0.0000000), wk =   0.0208333
        k(   72) = (   0.1666667   0.4811252   0.0784191), wk =   0.0416667
        k(   73) = (   0.1666667   0.4811252   0.1568381), wk =   0.0416667
        k(   74) = (   0.1666667   0.4811252   0.2352572), wk =   0.0416667
        k(   75) = (   0.1666667   0.4811252  -0.3136763), wk =   0.0208333
        k(   76) = (   0.1666667   0.5773503   0.0000000), wk =   0.0104167
        k(   77) = (   0.1666667   0.5773503   0.0784191), wk =   0.0208333
        k(   78) = (   0.1666667   0.5773503   0.1568381), wk =   0.0208333
        k(   79) = (   0.1666667   0.5773503   0.2352572), wk =   0.0208333
        k(   80) = (   0.1666667   0.5773503  -0.3136763), wk =   0.0104167
        k(   81) = (   0.2500000   0.4330127   0.0000000), wk =   0.0104167
        k(   82) = (   0.2500000   0.4330127   0.0784191), wk =   0.0208333
        k(   83) = (   0.2500000   0.4330127   0.1568381), wk =   0.0208333
        k(   84) = (   0.2500000   0.4330127   0.2352572), wk =   0.0208333
        k(   85) = (   0.2500000   0.4330127  -0.3136763), wk =   0.0104167
        k(   86) = (   0.2500000   0.5292377   0.0000000), wk =   0.0208333
        k(   87) = (   0.2500000   0.5292377   0.0784191), wk =   0.0416667
        k(   88) = (   0.2500000   0.5292377   0.1568381), wk =   0.0416667
        k(   89) = (   0.2500000   0.5292377   0.2352572), wk =   0.0416667
        k(   90) = (   0.2500000   0.5292377  -0.3136763), wk =   0.0208333
        k(   91) = (   0.3333333   0.5773503   0.0000000), wk =   0.0034722
        k(   92) = (   0.3333333   0.5773503   0.0784191), wk =   0.0069444
        k(   93) = (   0.3333333   0.5773503   0.1568381), wk =   0.0069444
        k(   94) = (   0.3333333   0.5773503   0.2352572), wk =   0.0069444
        k(   95) = (   0.3333333   0.5773503  -0.3136763), wk =   0.0034722

     Dense  grid:    32631 G-vectors     FFT dimensions: (  36,  36,  60)

     Estimated max dynamical RAM per process >     213.70 MB

     Check: negative core charge=   -0.000015

     Initial potential from superposition of free atoms

     starting charge      21.9956, renormalised to      22.0000
     Starting wfcs are   20 randomized atomic wfcs
     Checking if some PAW data can be deallocated... 

     total cpu time spent up to now is       10.5 secs

     Self-consistent Calculation

     iteration #  1     ecut=    80.00 Ry     beta= 0.70
     Davidson diagonalization with overlap
     ethr =  1.00E-02,  avg # of iterations =  2.2

     Threshold (ethr) on eigenvalues was too large:
     Diagonalizing with lowered threshold

     Davidson diagonalization with overlap
     c_bands:  2 eigenvalues not converged
     c_bands:  1 eigenvalues not converged
     c_bands:  2 eigenvalues not converged
     c_bands:  2 eigenvalues not converged
     c_bands:  1 eigenvalues not converged
     c_bands:  1 eigenvalues not converged
     c_bands:  3 eigenvalues not converged
     c_bands:  4 eigenvalues not converged
     c_bands:  4 eigenvalues not converged
     c_bands:  1 eigenvalues not converged
     c_bands:  3 eigenvalues not converged
     c_bands:  2 eigenvalues not converged
     c_bands:  2 eigenvalues not converged
     c_bands:  2 eigenvalues not converged
     c_bands:  2 eigenvalues not converged
     c_bands:  1 eigenvalues not converged
     c_bands:  1 eigenvalues not converged
     c_bands:  1 eigenvalues not converged
     c_bands:  1 eigenvalues not converged
     c_bands:  3 eigenvalues not converged
     c_bands:  5 eigenvalues not converged
     c_bands:  4 eigenvalues not converged
     c_bands:  2 eigenvalues not converged
     c_bands:  1 eigenvalues not converged
     c_bands:  3 eigenvalues not converged
     c_bands:  4 eigenvalues not converged
     c_bands:  3 eigenvalues not converged
     ethr =  1.96E-05,  avg # of iterations = 17.6

     total cpu time spent up to now is       89.3 secs

     total energy              =    -306.86694203 Ry
     estimated scf accuracy    <       0.02013754 Ry

     iteration #  2     ecut=    80.00 Ry     beta= 0.70
     Davidson diagonalization with overlap
     ethr =  9.15E-05,  avg # of iterations =  4.6

     total cpu time spent up to now is      106.2 secs

     total energy              =    -306.87190720 Ry
     estimated scf accuracy    <       0.00148079 Ry

     iteration #  3     ecut=    80.00 Ry     beta= 0.70
     Davidson diagonalization with overlap
     c_bands:  1 eigenvalues not converged
     c_bands:  1 eigenvalues not converged
     c_bands:  1 eigenvalues not converged
     ethr =  6.73E-06,  avg # of iterations =  8.7

     total cpu time spent up to now is      131.9 secs

     total energy              =    -306.87295962 Ry
     estimated scf accuracy    <       0.00030155 Ry

     iteration #  4     ecut=    80.00 Ry     beta= 0.70
     Davidson diagonalization with overlap
     c_bands:  1 eigenvalues not converged
     c_bands:  1 eigenvalues not converged
     ethr =  1.37E-06,  avg # of iterations =  7.1

     total cpu time spent up to now is      153.9 secs

     total energy              =    -306.87314504 Ry
     estimated scf accuracy    <       0.00015031 Ry

     iteration #  5     ecut=    80.00 Ry     beta= 0.70
     Davidson diagonalization with overlap
     c_bands:  1 eigenvalues not converged
     ethr =  6.83E-07,  avg # of iterations =  6.8

     total cpu time spent up to now is      173.6 secs

     total energy              =    -306.87322609 Ry
     estimated scf accuracy    <       0.00002078 Ry

     iteration #  6     ecut=    80.00 Ry     beta= 0.70
     Davidson diagonalization with overlap
     ethr =  9.45E-08,  avg # of iterations =  7.7

     total cpu time spent up to now is      193.6 secs

     total energy              =    -306.87322442 Ry
     estimated scf accuracy    <       0.00002216 Ry

     iteration #  7     ecut=    80.00 Ry     beta= 0.70
     Davidson diagonalization with overlap
     ethr =  9.45E-08,  avg # of iterations =  5.0

     total cpu time spent up to now is      211.4 secs

     total energy              =    -306.87323172 Ry
     estimated scf accuracy    <       0.00000050 Ry

     iteration #  8     ecut=    80.00 Ry     beta= 0.70
     Davidson diagonalization with overlap
     c_bands:  1 eigenvalues not converged
     ethr =  2.25E-09,  avg # of iterations = 14.4

     total cpu time spent up to now is      248.0 secs

     total energy              =    -306.87323369 Ry
     estimated scf accuracy    <       0.00000013 Ry

     iteration #  9     ecut=    80.00 Ry     beta= 0.70
     Davidson diagonalization with overlap
     ethr =  6.03E-10,  avg # of iterations =  4.2

     total cpu time spent up to now is      263.5 secs

     total energy              =    -306.87323369 Ry
     estimated scf accuracy    <       0.00000006 Ry

     iteration # 10     ecut=    80.00 Ry     beta= 0.70
     Davidson diagonalization with overlap
     ethr =  2.74E-10,  avg # of iterations =  7.8

     total cpu time spent up to now is      284.5 secs

     End of self-consistent calculation

          k = 0.0000 0.0000 0.0000 (  4055 PWs)   bands (ev):

   -40.1391 -40.0748 -19.2241 -18.8905 -18.8905 -18.8321 -18.8321 -18.8151
     3.7531   7.1394   9.3006  10.3504  10.3505  10.4635  10.7540

          k = 0.0000 0.0000 0.0784 (  4055 PWs)   bands (ev):

   -40.1367 -40.0772 -19.2090 -18.8883 -18.8883 -18.8344 -18.8344 -18.8312
     3.8543   6.9862   9.2701  10.3077  10.3077  10.3953  10.6984

          k = 0.0000 0.0000 0.1568 (  4078 PWs)   bands (ev):

   -40.1298 -40.0843 -19.1659 -18.8820 -18.8820 -18.8768 -18.8407 -18.8407
     4.1513   6.5412   9.2775  10.2129  10.2452  10.2452  10.5635

          k = 0.0000 0.0000 0.2353 (  4078 PWs)   bands (ev):

   -40.1194 -40.0947 -19.1007 -18.9443 -18.8726 -18.8726 -18.8502 -18.8502
     4.6230   5.9063   9.4174   9.9500  10.2332  10.2336  10.4110

          k = 0.0000 0.0000-0.3137 (  4060 PWs)   bands (ev):

   -40.1071 -40.1071 -19.0230 -19.0230 -18.8614 -18.8614 -18.8614 -18.8614
     5.2302   5.2302   9.6632   9.6632  10.2913  10.2913  10.2913

          k = 0.0000 0.0962 0.0000 (  4067 PWs)   bands (ev):

   -40.1358 -40.0734 -19.2152 -18.9088 -18.8966 -18.8512 -18.8347 -18.8188
     3.9044   7.2694   9.1760  10.0812  10.4598  10.6277  10.6896

          k = 0.0000 0.0962 0.0784 (  4065 PWs)   bands (ev):

   -40.1334 -40.0758 -19.2011 -18.9061 -18.8942 -18.8592 -18.8371 -18.8285
     4.0041   7.1157   9.1477  10.0772  10.4053  10.5028  10.6357

          k = 0.0000 0.0962 0.1568 (  4062 PWs)   bands (ev):

   -40.1267 -40.0826 -19.1606 -18.8992 -18.8926 -18.8876 -18.8448 -18.8438
     4.2969   6.6685   9.1706  10.0830  10.2318  10.3320  10.6470

          k = 0.0000 0.0962 0.2353 (  4059 PWs)   bands (ev):

   -40.1166 -40.0928 -19.0995 -18.9539 -18.8870 -18.8776 -18.8590 -18.8539
     4.7624   6.0341   9.3305   9.9168  10.1298  10.3173  10.3778

          k = 0.0000 0.0962-0.3137 (  4072 PWs)   bands (ev):

   -40.1047 -40.1047 -19.0269 -19.0269 -18.8733 -18.8733 -18.8657 -18.8657
     5.3628   5.3628   9.5990   9.5991  10.2303  10.2311  10.3752

          k = 0.0000 0.1925 0.0000 (  4083 PWs)   bands (ev):

   -40.1266 -40.0699 -19.1900 -18.9589 -18.9127 -18.9023 -18.8423 -18.8301
     4.3436   7.6178   8.8896   9.6700  10.4045  10.7776  10.8107

          k = 0.0000 0.1925 0.0784 (  4068 PWs)   bands (ev):

   -40.1244 -40.0720 -19.1790 -18.9548 -18.9119 -18.9100 -18.8449 -18.8364
     4.4385   7.4643   8.8732   9.6893  10.3957  10.5409  10.6277

          k = 0.0000 0.1925 0.1568 (  4056 PWs)   bands (ev):

   -40.1183 -40.0782 -19.1474 -18.9482 -18.9351 -18.9024 -18.8529 -18.8526
     4.7174   7.0137   8.9341   9.7461  10.1704  10.4047  10.5369

          k = 0.0000 0.1925 0.2353 (  4076 PWs)   bands (ev):

   -40.1091 -40.0874 -19.1000 -18.9888 -18.9215 -18.8910 -18.8749 -18.8641
     5.1618   6.3875   9.1354   9.7344   9.9538  10.2563  10.5308

          k = 0.0000 0.1925-0.3137 (  4076 PWs)   bands (ev):

   -40.0983 -40.0983 -19.0440 -19.0440 -18.8989 -18.8989 -18.8776 -18.8776
     5.7376   5.7376   9.4315   9.4316  10.0753  10.0753  10.6018

          k = 0.0000 0.2887 0.0000 (  4059 PWs)   bands (ev):

   -40.1134 -40.0655 -19.1522 -19.0281 -18.9701 -18.9338 -18.8532 -18.8488
     5.0251   8.0247   8.5817   9.2457  10.1852  10.4659  10.5661

          k = 0.0000 0.2887 0.0784 (  4069 PWs)   bands (ev):

   -40.1116 -40.0674 -19.1488 -19.0194 -18.9793 -18.9308 -18.8563 -18.8521
     5.1104   7.8765   8.5925   9.2764  10.1575  10.4063  10.5792

          k = 0.0000 0.2887 0.1568 (  4066 PWs)   bands (ev):

   -40.1064 -40.0726 -19.1370 -19.0152 -18.9844 -18.9221 -18.8651 -18.8638
     5.3607   7.4429   8.7096   9.3529  10.0116  10.2952  10.6288

          k = 0.0000 0.2887 0.2353 (  4076 PWs)   bands (ev):

   -40.0987 -40.0804 -19.1150 -19.0476 -18.9528 -18.9091 -18.8857 -18.8782
     5.7598   6.8653   8.9363   9.3903   9.8528  10.1256  10.7295

          k = 0.0000 0.2887-0.3137 (  4072 PWs)   bands (ev):

   -40.0895 -40.0895 -19.0838 -19.0838 -18.9168 -18.9168 -18.8937 -18.8937
     6.2775   6.2775   9.2086   9.2086   9.9281   9.9281  10.8823

          k = 0.0000 0.3849 0.0000 (  4090 PWs)   bands (ev):

   -40.0992 -40.0622 -19.1078 -19.0979 -19.0358 -18.9543 -18.8740 -18.8647
     5.8645   8.1840   8.3322   8.9110  10.2109  10.2189  10.3537

          k = 0.0000 0.3849 0.0784 (  4079 PWs)   bands (ev):

   -40.0978 -40.0637 -19.1343 -19.0670 -19.0402 -18.9510 -18.8740 -18.8682
     5.9315   8.0425   8.4012   8.9526  10.0660  10.2978  10.4032

          k = 0.0000 0.3849 0.1568 (  4074 PWs)   bands (ev):

   -40.0938 -40.0677 -19.1509 -19.0796 -19.0067 -18.9413 -18.8782 -18.8779
     6.1276   7.7099   8.5622   9.0407   9.9204  10.2473  10.5483

          k = 0.0000 0.3849 0.2353 (  4076 PWs)   bands (ev):

   -40.0878 -40.0737 -19.1513 -19.1100 -18.9609 -18.9269 -18.8931 -18.8926
     6.4382   7.2808   8.7850   9.0944   9.8333  10.0784  10.7785

          k = 0.0000 0.3849-0.3137 (  4070 PWs)   bands (ev):

   -40.0807 -40.0807 -19.1364 -19.1364 -18.9213 -18.9213 -18.9097 -18.9097
     6.8365   6.8365   9.0010   9.0010   9.8950   9.8950  11.0734

          k = 0.0000 0.4811 0.0000 (  4090 PWs)   bands (ev):

   -40.0874 -40.0612 -19.1492 -19.0827 -19.0666 -18.9690 -18.9012 -18.8734
     6.7156   8.0183   8.1749   8.6615  10.0483  10.2124  10.4245

          k = 0.0000 0.4811 0.0784 (  4083 PWs)   bands (ev):

   -40.0864 -40.0622 -19.1633 -19.0966 -19.0418 -18.9654 -18.8978 -18.8771
     6.7472   7.9225   8.2740   8.6918  10.0537  10.2744  10.3782

          k = 0.0000 0.4811 0.1568 (  4074 PWs)   bands (ev):

   -40.0836 -40.0650 -19.1820 -19.1251 -18.9977 -18.9551 -18.8940 -18.8875
     6.8437   7.7270   8.4673   8.7886  10.0407  10.2554  10.4572

          k = 0.0000 0.4811 0.2353 (  4075 PWs)   bands (ev):

   -40.0793 -40.0693 -19.1882 -19.1558 -18.9543 -18.9397 -18.9031 -18.8999
     7.0055   7.4786   8.6983   8.8990   9.9842  10.1061  10.7504

          k = 0.0000 0.4811-0.3137 (  4082 PWs)   bands (ev):

   -40.0743 -40.0743 -19.1788 -19.1788 -18.9214 -18.9214 -18.9202 -18.9202
     7.2248   7.2248   8.8815   8.8815   9.9873   9.9875  11.1347

          k = 0.0000-0.5774 0.0000 (  4072 PWs)   bands (ev):

   -40.0824 -40.0614 -19.1680 -19.0997 -19.0473 -18.9744 -18.9154 -18.8766
     7.2300   7.7827   8.1217   8.5463   9.9875  10.1631  10.5236

          k = 0.0000-0.5774 0.0784 (  4082 PWs)   bands (ev):

   -40.0816 -40.0622 -19.1791 -19.1124 -19.0283 -18.9707 -18.9102 -18.8804
     7.2095   7.7597   8.2329   8.5435  10.0426  10.2285  10.4526

          k = 0.0000-0.5774 0.1568 (  4074 PWs)   bands (ev):

   -40.0793 -40.0645 -19.1963 -19.1415 -18.9890 -18.9602 -18.9023 -18.8910
     7.1943   7.6669   8.4960   8.5946  10.1387  10.2730  10.4217

          k = 0.0000-0.5774 0.2353 (  4084 PWs)   bands (ev):

   -40.0759 -40.0679 -19.2031 -19.1724 -18.9494 -18.9444 -18.9070 -18.9034
     7.2379   7.5102   8.7326   8.7646  10.0904  10.1459  10.7328

          k = 0.0000-0.5774-0.3137 (  4100 PWs)   bands (ev):

   -40.0719 -40.0719 -19.1948 -19.1948 -18.9257 -18.9257 -18.9192 -18.9192
     7.3505   7.3505   8.8502   8.8502  10.0614  10.0616  11.1431

          k = 0.0833 0.1443 0.0000 (  4063 PWs)   bands (ev):

   -40.1295 -40.0710 -19.1982 -18.9395 -18.9157 -18.8793 -18.8423 -18.8263
     4.1999   7.5109   8.9752   9.7818  10.4851  10.6890  10.7598

          k = 0.0833 0.1443 0.0784 (  4062 PWs)   bands (ev):

   -40.1273 -40.0732 -19.1860 -18.9358 -18.9151 -18.8872 -18.8449 -18.8330
     4.2965   7.3569   8.9542   9.7968  10.4929  10.5086  10.5825

          k = 0.0833 0.1443 0.1568 (  4068 PWs)   bands (ev):

   -40.1210 -40.0796 -19.1512 -18.9290 -18.9254 -18.8972 -18.8521 -18.8489
     4.5803   6.9064   9.0025   9.8452  10.1967  10.4330  10.4906

          k = 0.0833 0.1443 0.2353 (  4069 PWs)   bands (ev):

   -40.1115 -40.0891 -19.0990 -18.9763 -18.9097 -18.8905 -18.8675 -18.8628
     5.0323   6.2757   9.1932   9.8104   9.9870  10.2858  10.4763

          k = 0.0833 0.1443-0.3137 (  4072 PWs)   bands (ev):

   -40.1003 -40.1003 -19.0372 -19.0372 -18.8920 -18.8920 -18.8740 -18.8740
     5.6173   5.6173   9.4860   9.4860  10.1159  10.1160  10.5324

          k = 0.0833 0.2406 0.0000 (  4060 PWs)   bands (ev):

   -40.1183 -40.0670 -19.1666 -18.9944 -18.9607 -18.9133 -18.8552 -18.8414
     4.7623   7.9080   8.6962   9.3709  10.2557  10.4609  10.7510

          k = 0.0833 0.2406 0.0784 (  4061 PWs)   bands (ev):

   -40.1164 -40.0690 -19.1594 -18.9885 -18.9647 -18.9165 -18.8584 -18.8447
     4.8519   7.7563   8.6921   9.3986  10.2648  10.3827  10.6768

          k = 0.0833 0.2406 0.1568 (  4065 PWs)   bands (ev):

   -40.1108 -40.0746 -19.1383 -18.9892 -18.9655 -18.9173 -18.8671 -18.8558
     5.1152   7.3073   8.7867   9.4739  10.0855  10.3009  10.6261

          k = 0.0833 0.2406 0.2353 (  4069 PWs)   bands (ev):

   -40.1025 -40.0829 -19.1057 -19.0235 -18.9407 -18.9107 -18.8804 -18.8735
     5.5351   6.7001   9.0094   9.5180   9.8708  10.1408  10.6779

          k = 0.0833 0.2406-0.3137 (  4066 PWs)   bands (ev):

   -40.0927 -40.0927 -19.0654 -19.0654 -18.9145 -18.9145 -18.8875 -18.8875
     6.0805   6.0805   9.3000   9.3000   9.9459   9.9464  10.7835

          k = 0.0833 0.3368 0.0000 (  4077 PWs)   bands (ev):

   -40.1046 -40.0633 -19.1252 -19.0626 -19.0154 -18.9448 -18.8691 -18.8637
     5.5301   8.2264   8.4407   8.9952  10.1518  10.2049  10.5101

          k = 0.0833 0.3368 0.0784 (  4077 PWs)   bands (ev):

   -40.1030 -40.0649 -19.1321 -19.0488 -19.0189 -18.9447 -18.8739 -18.8626
     5.6066   8.0780   8.4828   9.0330  10.0614  10.2716  10.4928

          k = 0.0833 0.3368 0.1568 (  4072 PWs)   bands (ev):

   -40.0985 -40.0693 -19.1375 -19.0543 -18.9985 -18.9400 -18.8845 -18.8664
     5.8309   7.6811   8.6306   9.1230   9.9187  10.2208  10.5627

          k = 0.0833 0.3368 0.2353 (  4067 PWs)   bands (ev):

   -40.0919 -40.0760 -19.1307 -19.0829 -18.9604 -18.9292 -18.8984 -18.8800
     6.1875   7.1694   8.8564   9.1953   9.7847  10.0282  10.7527

          k = 0.0833 0.3368-0.3137 (  4068 PWs)   bands (ev):

   -40.0840 -40.0840 -19.1112 -19.1112 -18.9306 -18.9306 -18.8991 -18.8991
     6.6485   6.6485   9.0927   9.0927   9.8295   9.8296  10.9898

          k = 0.0833 0.4330 0.0000 (  4079 PWs)   bands (ev):

   -40.0914 -40.0613 -19.1229 -19.0812 -19.0632 -18.9693 -18.8911 -18.8810
     6.3937   8.1983   8.2572   8.7312  10.0372  10.2778  10.3219

          k = 0.0833 0.4330 0.0784 (  4082 PWs)   bands (ev):

   -40.0902 -40.0624 -19.1420 -19.0813 -19.0457 -18.9667 -18.8925 -18.8803
     6.4459   8.0661   8.3511   8.7822   9.9859  10.2614  10.3650

          k = 0.0833 0.4330 0.1568 (  4084 PWs)   bands (ev):

   -40.0870 -40.0657 -19.1619 -19.1054 -19.0040 -18.9565 -18.9014 -18.8791
     6.5987   7.8128   8.5203   8.8951   9.8825  10.1545  10.5178

          k = 0.0833 0.4330 0.2353 (  4077 PWs)   bands (ev):

   -40.0821 -40.0706 -19.1674 -19.1344 -18.9677 -18.9382 -18.9144 -18.8859
     6.8402   7.4889   8.7441   8.9889   9.7955   9.9686  10.7687

          k = 0.0833 0.4330-0.3137 (  4068 PWs)   bands (ev):

   -40.0763 -40.0763 -19.1572 -19.1572 -18.9429 -18.9429 -18.9038 -18.9038
     7.1485   7.1485   8.9430   8.9430   9.8130   9.8131  11.0946

          k = 0.0833 0.5292 0.0000 (  4075 PWs)   bands (ev):

   -40.0825 -40.0614 -19.1578 -19.0908 -19.0476 -18.9827 -18.9151 -18.8879
     7.1520   7.9463   8.1633   8.5449   9.9717  10.1217  10.5189

          k = 0.0833 0.5292 0.0784 (  4079 PWs)   bands (ev):

   -40.0817 -40.0622 -19.1689 -19.1040 -19.0302 -18.9772 -18.9121 -18.8892
     7.1568   7.8949   8.2656   8.5669   9.9872  10.1289  10.5058

          k = 0.0833 0.5292 0.1568 (  4078 PWs)   bands (ev):

   -40.0794 -40.0645 -19.1861 -19.1331 -18.9993 -18.9591 -18.9150 -18.8885
     7.1884   7.7696   8.4847   8.6720   9.9878  10.0677  10.5781

          k = 0.0833 0.5292 0.2353 (  4081 PWs)   bands (ev):

   -40.0760 -40.0679 -19.1931 -19.1634 -18.9731 -18.9344 -18.9258 -18.8905
     7.2723   7.5933   8.7231   8.8465   9.8814   9.9536  10.8215

          k = 0.0833 0.5292-0.3137 (  4092 PWs)   bands (ev):

   -40.0719 -40.0719 -19.1852 -19.1852 -18.9506 -18.9506 -18.9043 -18.9043
     7.4138   7.4138   8.8915   8.8915   9.8450   9.8451  11.1720

          k = 0.1667 0.2887 0.0000 (  4067 PWs)   bands (ev):

   -40.1065 -40.0637 -19.1313 -19.0325 -19.0248 -18.9335 -18.8788 -18.8602
     5.4164   8.2631   8.4956   8.9993  10.1423  10.1605  10.5989

          k = 0.1667 0.2887 0.0784 (  4068 PWs)   bands (ev):

   -40.1049 -40.0653 -19.1331 -19.0290 -19.0193 -18.9387 -18.8818 -18.8595
     5.4961   8.1098   8.5252   9.0329  10.1102  10.1915  10.5441

          k = 0.1667 0.2887 0.1568 (  4082 PWs)   bands (ev):

   -40.1002 -40.0700 -19.1320 -19.0444 -18.9881 -18.9444 -18.8899 -18.8629
     5.7301   7.6828   8.6672   9.1258   9.9607  10.1820  10.5361

          k = 0.1667 0.2887 0.2353 (  4079 PWs)   bands (ev):

   -40.0933 -40.0769 -19.1210 -19.0708 -18.9538 -18.9414 -18.8993 -18.8761
     6.1030   7.1367   8.8949   9.2234   9.7777   9.9870  10.7099

          k = 0.1667 0.2887-0.3137 (  4072 PWs)   bands (ev):

   -40.0851 -40.0851 -19.0991 -19.0991 -18.9367 -18.9367 -18.8954 -18.8954
     6.5867   6.5867   9.1386   9.1386   9.7860   9.7860  10.9336

          k = 0.1667 0.3849 0.0000 (  4083 PWs)   bands (ev):

   -40.0936 -40.0614 -19.0891 -19.0883 -19.0593 -18.9660 -18.9013 -18.8858
     6.2279   8.3439   8.4190   8.7000   9.9481  10.2288  10.3573

          k = 0.1667 0.3849 0.0784 (  4085 PWs)   bands (ev):

   -40.0924 -40.0627 -19.1187 -19.0793 -19.0355 -18.9707 -18.9055 -18.8801
     6.2911   8.2250   8.4786   8.7453   9.9119  10.2525  10.3069

          k = 0.1667 0.3849 0.1568 (  4082 PWs)   bands (ev):

   -40.0889 -40.0661 -19.1391 -19.0933 -18.9971 -18.9716 -18.9140 -18.8744
     6.4760   7.9367   8.6236   8.8543   9.8161  10.0736  10.4325

          k = 0.1667 0.3849 0.2353 (  4082 PWs)   bands (ev):

   -40.0837 -40.0714 -19.1447 -19.1156 -18.9763 -18.9575 -18.9159 -18.8793
     6.7678   7.5499   8.8258   8.9800   9.6878   9.8305  10.6656

          k = 0.1667 0.3849-0.3137 (  4078 PWs)   bands (ev):

   -40.0775 -40.0775 -19.1355 -19.1355 -18.9625 -18.9625 -18.8967 -18.8967
     7.1398   7.1398   8.9947   8.9947   9.6571   9.6571  10.9745

          k = 0.1667 0.4811 0.0000 (  4088 PWs)   bands (ev):

   -40.0825 -40.0613 -19.1313 -19.0756 -19.0483 -18.9974 -18.9164 -18.9144
     7.0540   8.2455   8.2563   8.5331   9.8648  10.1068  10.4867

          k = 0.1667 0.4811 0.0784 (  4086 PWs)   bands (ev):

   -40.0817 -40.0621 -19.1418 -19.0922 -19.0303 -18.9920 -18.9254 -18.9013
     7.0892   8.1451   8.3475   8.6046   9.8370  10.0437  10.5049

          k = 0.1667 0.4811 0.1568 (  4084 PWs)   bands (ev):

   -40.0794 -40.0644 -19.1595 -19.1177 -19.0163 -18.9672 -18.9340 -18.8877
     7.1926   7.9879   8.5095   8.7651   9.7480   9.8693  10.5928

          k = 0.1667 0.4811 0.2353 (  4090 PWs)   bands (ev):

   -40.0760 -40.0679 -19.1683 -19.1441 -19.0016 -18.9650 -18.9188 -18.8841
     7.3563   7.7854   8.7382   8.9338   9.6188   9.6379  10.7801

          k = 0.1667 0.4811-0.3137 (  4086 PWs)   bands (ev):

   -40.0719 -40.0719 -19.1628 -19.1628 -18.9829 -18.9829 -18.8951 -18.8951
     7.5633   7.5633   8.9472   8.9472   9.5241   9.5241  11.0646

          k = 0.1667 0.5774 0.0000 (  4073 PWs)   bands (ev):

   -40.0776 -40.0622 -19.1468 -19.0799 -19.0275 -19.0108 -18.9307 -18.9217
     7.5566   8.0290   8.2285   8.4381   9.9088   9.9404  10.6149

          k = 0.1667 0.5774 0.0784 (  4086 PWs)   bands (ev):

   -40.0770 -40.0628 -19.1552 -19.0937 -19.0328 -18.9874 -18.9373 -18.9108
     7.5485   8.0160   8.3206   8.4703   9.8724   9.9049  10.6279

          k = 0.1667 0.5774 0.1568 (  4090 PWs)   bands (ev):

   -40.0753 -40.0644 -19.1703 -19.1236 -19.0269 -18.9506 -18.9503 -18.8946
     7.5549   7.9543   8.5519   8.5906   9.7659   9.7726  10.7055

          k = 0.1667 0.5774 0.2353 (  4087 PWs)   bands (ev):

   -40.0728 -40.0669 -19.1784 -19.1532 -19.0112 -18.9692 -18.9166 -18.8870
     7.6095   7.8405   8.7977   8.8353   9.5537   9.5940  10.8842

          k = 0.1667 0.5774-0.3137 (  4098 PWs)   bands (ev):

   -40.0699 -40.0699 -19.1729 -19.1729 -18.9906 -18.9906 -18.8942 -18.8942
     7.7126   7.7126   8.9777   8.9777   9.4319   9.4319  11.1537

          k = 0.2500 0.4330 0.0000 (  4111 PWs)   bands (ev):

   -40.0826 -40.0613 -19.1085 -19.0788 -19.0486 -18.9968 -18.9372 -18.9141
     7.0183   8.3093   8.4411   8.4818   9.7888  10.1169  10.4534

          k = 0.2500 0.4330 0.0784 (  4095 PWs)   bands (ev):

   -40.0818 -40.0621 -19.1106 -19.1069 -19.0163 -19.0070 -18.9396 -18.9034
     7.0651   8.2473   8.4783   8.5579   9.7727  10.0125  10.4637

          k = 0.2500 0.4330 0.1568 (  4087 PWs)   bands (ev):

   -40.0795 -40.0644 -19.1353 -19.1198 -19.0181 -18.9832 -18.9391 -18.8877
     7.2002   8.1095   8.5878   8.7164   9.7061   9.7691  10.5205

          k = 0.2500 0.4330 0.2353 (  4087 PWs)   bands (ev):

   -40.0760 -40.0679 -19.1497 -19.1360 -19.0143 -18.9843 -18.9160 -18.8823
     7.4070   7.9053   8.7580   8.8930   9.5115   9.5699  10.6798

          k = 0.2500 0.4330-0.3137 (  4088 PWs)   bands (ev):

   -40.0719 -40.0719 -19.1488 -19.1488 -19.0000 -19.0000 -18.8923 -18.8923
     7.6561   7.6561   8.9261   8.9261   9.4298   9.4298  10.9651

          k = 0.2500 0.5292 0.0000 (  4082 PWs)   bands (ev):

   -40.0742 -40.0632 -19.1237 -19.0676 -19.0315 -19.0123 -18.9600 -18.9433
     7.7095   8.2590   8.3110   8.3764   9.7630   9.8912  10.6775

          k = 0.2500 0.5292 0.0784 (  4084 PWs)   bands (ev):

   -40.0738 -40.0637 -19.1268 -19.0865 -19.0469 -18.9870 -18.9642 -18.9266
     7.7377   8.2317   8.3438   8.4651   9.7226   9.7961  10.6817

          k = 0.2500 0.5292 0.1568 (  4092 PWs)   bands (ev):

   -40.0726 -40.0648 -19.1391 -19.1136 -19.0566 -18.9861 -18.9394 -18.9023
     7.8158   8.1883   8.4678   8.6484   9.5466   9.6086  10.7169

          k = 0.2500 0.5292 0.2353 (  4100 PWs)   bands (ev):

   -40.0708 -40.0666 -19.1514 -19.1377 -19.0466 -19.0049 -18.9078 -18.8879
     7.9249   8.1285   8.6721   8.8861   9.2466   9.4056  10.8310

          k = 0.2500 0.5292-0.3137 (  4100 PWs)   bands (ev):

   -40.0687 -40.0687 -19.1517 -19.1517 -19.0268 -19.0268 -18.8895 -18.8895
     8.0379   8.0379   8.9374   8.9374   9.1554   9.1554  11.0607

          k = 0.3333 0.5774 0.0000 (  4077 PWs)   bands (ev):

   -40.0675 -40.0675 -19.1142 -19.0528 -19.0528 -18.9857 -18.9765 -18.9765
     8.1581   8.1581   8.2619   8.3475   9.7598   9.7598  10.7723

          k = 0.3333 0.5774 0.0784 (  4104 PWs)   bands (ev):

   -40.0675 -40.0675 -19.1094 -19.0743 -19.0743 -18.9907 -18.9547 -18.9547
     8.2038   8.2038   8.2808   8.3661   9.6821   9.6822  10.7710

          k = 0.3333 0.5774 0.1568 (  4077 PWs)   bands (ev):

   -40.0675 -40.0675 -19.1075 -19.1075 -19.0956 -19.0047 -18.9210 -18.9210
     8.3311   8.3342   8.3342   8.4090   9.4817   9.4817  10.7879

          k = 0.3333 0.5774 0.2353 (  4104 PWs)   bands (ev):

   -40.0675 -40.0675 -19.1315 -19.1315 -19.0749 -19.0257 -18.8964 -18.8964
     8.3934   8.4433   8.5220   8.5220   9.2317   9.2317  10.8743

          k = 0.3333 0.5774-0.3137 (  4128 PWs)   bands (ev):

   -40.0675 -40.0675 -19.1400 -19.1400 -19.0504 -19.0504 -18.8875 -18.8875
     8.4388   8.4388   8.6526   8.6526   9.0772   9.0772  11.0786

     the Fermi energy is     8.8144 ev

!    total energy              =    -306.87323373 Ry
     total all-electron energy =     -3050.014005 Ry
     estimated scf accuracy    <          5.9E-09 Ry
     smearing contrib. (-TS)   =      -0.00104025 Ry
     internal energy E=F+TS    =    -306.87219348 Ry

     The total energy is F=E-TS. E is the sum of the following terms:
     one-electron contribution =     -74.40826906 Ry
     hartree contribution      =      42.28633143 Ry
     xc contribution           =     -34.52743544 Ry
     ewald contribution        =    -126.46581261 Ry
     one-center paw contrib.   =    -113.75700780 Ry

     convergence has been achieved in  10 iterations

     Forces acting on atoms (cartesian axes, Ry/au):

     atom    1 type  1   force =     0.00000000   -0.00000000    0.00000000
     atom    2 type  1   force =     0.00000000    0.00000000    0.00000000
     The non-local contrib.  to forces
     atom    1 type  1   force =    -0.00000000   -0.00000000    0.00000000
     atom    2 type  1   force =     0.00000000    0.00000000    0.00000000
     The ionic contribution  to forces
     atom    1 type  1   force =     0.00000000   -0.00000000    0.00000000
     atom    2 type  1   force =    -0.00000000    0.00000000    0.00000000
     The local contribution  to forces
     atom    1 type  1   force =     0.00000000    0.00000000    0.00000000
     atom    2 type  1   force =    -0.00000000    0.00000000    0.00000000
     The core correction contribution to forces
     atom    1 type  1   force =     0.00000000   -0.00000000    0.00000000
     atom    2 type  1   force =     0.00000000   -0.00000000    0.00000000
     The Hubbard contrib.    to forces
     atom    1 type  1   force =     0.00000000    0.00000000    0.00000000
     atom    2 type  1   force =     0.00000000    0.00000000    0.00000000
     The SCF correction term to forces
     atom    1 type  1   force =     0.00000000   -0.00000000    0.00000000
     atom    2 type  1   force =     0.00000000    0.00000000    0.00000000

     Total force =     0.000000     Total SCF correction =     0.000000


     Computing stress (Cartesian axis) and pressure

          total   stress  (Ry/bohr**3)                   (kbar)     P=      -54.99
  -0.00033356  -0.00000000   0.00000000          -49.07       -0.00        0.00
  -0.00000000  -0.00033356  -0.00000000           -0.00      -49.07       -0.00
   0.00000000  -0.00000000  -0.00045425            0.00       -0.00      -66.82


     BFGS Geometry Optimization
     Energy error            =      0.0E+00 Ry
     Gradient error          =      6.2E-28 Ry/Bohr
     Cell gradient error     =      6.7E+01 kbar

     number of scf cycles    =   1
     number of bfgs steps    =   0

     enthalpy           new  =    -306.8732337281 Ry

     new trust radius        =       0.0417273427 bohr
     new conv_thr            =       0.0000000100 Ry

     new unit-cell volume =    328.14983 a.u.^3 (    48.62679 Ang^3 )
     density =      3.04579 g/cm^3

CELL_PARAMETERS (alat=  6.25310370)
   0.991661091  -0.000000000   0.000000000
  -0.495830545   0.858803697  -0.000000000
   0.000000000  -0.000000000   1.575898018

ATOMIC_POSITIONS (crystal)
Sc           -0.0000000000       -0.0000000000        0.0000000000
Sc            0.6666666667        0.3333333333        0.5000000000



     Writing config-only to output data dir sc_vcrelax.out/scandium.save/
     NEW-OLD atomic charge density approx. for the potential

     Check: negative core charge=   -0.000012
     extrapolated charge   21.37159, renormalised to   22.00000

     total cpu time spent up to now is      305.1 secs

     Self-consistent Calculation

     iteration #  1     ecut=    80.00 Ry     beta= 0.70
     Davidson diagonalization with overlap
     c_bands:  1 eigenvalues not converged
     c_bands:  1 eigenvalues not converged
     c_bands:  2 eigenvalues not converged
     c_bands:  5 eigenvalues not converged
     c_bands:  5 eigenvalues not converged
     c_bands:  2 eigenvalues not converged
     c_bands:  3 eigenvalues not converged
     c_bands:  2 eigenvalues not converged
     c_bands:  1 eigenvalues not converged
     c_bands:  4 eigenvalues not converged
     c_bands:  4 eigenvalues not converged
     c_bands:  1 eigenvalues not converged
     c_bands:  2 eigenvalues not converged
     c_bands:  1 eigenvalues not converged
     c_bands:  4 eigenvalues not converged
     c_bands:  1 eigenvalues not converged
     c_bands:  1 eigenvalues not converged
     c_bands:  1 eigenvalues not converged
     c_bands:  2 eigenvalues not converged
     c_bands:  3 eigenvalues not converged
     c_bands:  4 eigenvalues not converged
     c_bands:  4 eigenvalues not converged
     c_bands:  2 eigenvalues not converged
     c_bands:  1 eigenvalues not converged
     c_bands:  5 eigenvalues not converged
     c_bands:  2 eigenvalues not converged
     c_bands:  4 eigenvalues not converged
     c_bands:  3 eigenvalues not converged
     c_bands:  5 eigenvalues not converged
     c_bands:  5 eigenvalues not converged
     c_bands:  5 eigenvalues not converged
     c_bands:  2 eigenvalues not converged
     c_bands:  1 eigenvalues not converged
     c_bands:  1 eigenvalues not converged
     c_bands:  1 eigenvalues not converged
     c_bands:  1 eigenvalues not converged
     c_bands:  4 eigenvalues not converged
     c_bands:  3 eigenvalues not converged
     c_bands:  4 eigenvalues not converged
     c_bands:  4 eigenvalues not converged
     c_bands:  2 eigenvalues not converged
     c_bands:  1 eigenvalues not converged
     c_bands:  4 eigenvalues not converged
     c_bands:  4 eigenvalues not converged
     c_bands:  2 eigenvalues not converged
     c_bands:  1 eigenvalues not converged
     c_bands:  4 eigenvalues not converged
     c_bands:  5 eigenvalues not converged
     c_bands:  2 eigenvalues not converged
     c_bands:  2 eigenvalues not converged
     c_bands:  2 eigenvalues not converged
     c_bands:  1 eigenvalues not converged
     c_bands:  3 eigenvalues not converged
     c_bands:  2 eigenvalues not converged
     c_bands:  2 eigenvalues not converged
     c_bands:  1 eigenvalues not converged
     c_bands:  5 eigenvalues not converged
     c_bands:  1 eigenvalues not converged
     ethr =  1.00E-06,  avg # of iterations = 19.5

     total cpu time spent up to now is      366.6 secs

     total energy              =    -306.76524124 Ry
     estimated scf accuracy    <       0.08003466 Ry

     iteration #  2     ecut=    80.00 Ry     beta= 0.70
     Davidson diagonalization with overlap
     ethr =  3.64E-04,  avg # of iterations =  7.0

     total cpu time spent up to now is      393.2 secs

     total energy              =    -306.87934662 Ry
     estimated scf accuracy    <       0.13389326 Ry

     iteration #  3     ecut=    80.00 Ry     beta= 0.70
     Davidson diagonalization with overlap
     ethr =  3.64E-04,  avg # of iterations =  1.2

     total cpu time spent up to now is      405.7 secs

     total energy              =    -306.87403707 Ry
     estimated scf accuracy    <       0.04090832 Ry

     iteration #  4     ecut=    80.00 Ry     beta= 0.70
     Davidson diagonalization with overlap
     ethr =  1.86E-04,  avg # of iterations =  2.5

     total cpu time spent up to now is      420.0 secs

     total energy              =    -306.87293315 Ry
     estimated scf accuracy    <       0.01687539 Ry

     iteration #  5     ecut=    80.00 Ry     beta= 0.70
     Davidson diagonalization with overlap
     ethr =  7.67E-05,  avg # of iterations =  3.0

     total cpu time spent up to now is      434.5 secs

     total energy              =    -306.87491879 Ry
     estimated scf accuracy    <       0.00671045 Ry

     iteration #  6     ecut=    80.00 Ry     beta= 0.70
     Davidson diagonalization with overlap
     ethr =  3.05E-05,  avg # of iterations =  4.4

     total cpu time spent up to now is      451.0 secs

     total energy              =    -306.87664805 Ry
     estimated scf accuracy    <       0.00390140 Ry

     iteration #  7     ecut=    80.00 Ry     beta= 0.70
     Davidson diagonalization with overlap
     ethr =  1.77E-05,  avg # of iterations =  2.7

     total cpu time spent up to now is      465.8 secs

     total energy              =    -306.87738321 Ry
     estimated scf accuracy    <       0.00339718 Ry

     iteration #  8     ecut=    80.00 Ry     beta= 0.70
     Davidson diagonalization with overlap
     ethr =  1.54E-05,  avg # of iterations =  1.4

     total cpu time spent up to now is      479.0 secs

     total energy              =    -306.87754260 Ry
     estimated scf accuracy    <       0.00383291 Ry

     iteration #  9     ecut=    80.00 Ry     beta= 0.70
     Davidson diagonalization with overlap
     ethr =  1.54E-05,  avg # of iterations =  1.1

     total cpu time spent up to now is      491.5 secs

     total energy              =    -306.87825965 Ry
     estimated scf accuracy    <       0.00379689 Ry

     iteration # 10     ecut=    80.00 Ry     beta= 0.70
     Davidson diagonalization with overlap
     ethr =  1.54E-05,  avg # of iterations =  1.0

     total cpu time spent up to now is      503.9 secs

     total energy              =    -306.87936053 Ry
     estimated scf accuracy    <       0.00491749 Ry

     iteration # 11     ecut=    80.00 Ry     beta= 0.70
     Davidson diagonalization with overlap
     ethr =  1.54E-05,  avg # of iterations =  1.0

     total cpu time spent up to now is      516.6 secs

     total energy              =    -306.88191636 Ry
     estimated scf accuracy    <       0.00690511 Ry

     iteration # 12     ecut=    80.00 Ry     beta= 0.70
     Davidson diagonalization with overlap
     ethr =  1.54E-05,  avg # of iterations =  1.3

     total cpu time spent up to now is      529.5 secs

     total energy              =    -306.88269626 Ry
     estimated scf accuracy    <       0.01166355 Ry

     iteration # 13     ecut=    80.00 Ry     beta= 0.70
     Davidson diagonalization with overlap
     ethr =  1.54E-05,  avg # of iterations =  1.4

     total cpu time spent up to now is      542.5 secs

     total energy              =    -306.88377622 Ry
     estimated scf accuracy    <       0.01301829 Ry

     iteration # 14     ecut=    80.00 Ry     beta= 0.70
     Davidson diagonalization with overlap
     ethr =  1.54E-05,  avg # of iterations =  1.5

     total cpu time spent up to now is      555.4 secs

     total energy              =    -306.88341596 Ry
     estimated scf accuracy    <       0.01538085 Ry

     iteration # 15     ecut=    80.00 Ry     beta= 0.70
     Davidson diagonalization with overlap
     ethr =  1.54E-05,  avg # of iterations =  1.3

     total cpu time spent up to now is      568.1 secs

     total energy              =    -306.87634472 Ry
     estimated scf accuracy    <       0.01495667 Ry

     iteration # 16     ecut=    80.00 Ry     beta= 0.70
     Davidson diagonalization with overlap
     ethr =  1.54E-05,  avg # of iterations =  2.4

     total cpu time spent up to now is      583.3 secs

     total energy              =    -306.87756175 Ry
     estimated scf accuracy    <       0.00391486 Ry

     iteration # 17     ecut=    80.00 Ry     beta= 0.70
     Davidson diagonalization with overlap
     ethr =  1.54E-05,  avg # of iterations =  1.3

     total cpu time spent up to now is      596.1 secs

     total energy              =    -306.87941631 Ry
     estimated scf accuracy    <       0.00419973 Ry

     iteration # 18     ecut=    80.00 Ry     beta= 0.70
     Davidson diagonalization with overlap
     ethr =  1.54E-05,  avg # of iterations =  1.0

     total cpu time spent up to now is      608.5 secs

     total energy              =    -306.88019265 Ry
     estimated scf accuracy    <       0.00732330 Ry

     iteration # 19     ecut=    80.00 Ry     beta= 0.70
     Davidson diagonalization with overlap
     ethr =  1.54E-05,  avg # of iterations =  1.1

     total cpu time spent up to now is      620.9 secs

     total energy              =    -306.88079918 Ry
     estimated scf accuracy    <       0.00882618 Ry

     iteration # 20     ecut=    80.00 Ry     beta= 0.70
     Davidson diagonalization with overlap
     ethr =  1.54E-05,  avg # of iterations =  1.0

     total cpu time spent up to now is      633.3 secs

     total energy              =    -306.88226531 Ry
     estimated scf accuracy    <       0.00995333 Ry

     iteration # 21     ecut=    80.00 Ry     beta= 0.70
     Davidson diagonalization with overlap
     ethr =  1.54E-05,  avg # of iterations =  1.1

     total cpu time spent up to now is      645.7 secs

     total energy              =    -306.88425272 Ry
     estimated scf accuracy    <       0.01285199 Ry

     iteration # 22     ecut=    80.00 Ry     beta= 0.70
     Davidson diagonalization with overlap
     ethr =  1.54E-05,  avg # of iterations =  1.8

     total cpu time spent up to now is      659.0 secs

     total energy              =    -306.87316007 Ry
     estimated scf accuracy    <       0.01715821 Ry

     iteration # 23     ecut=    80.00 Ry     beta= 0.70
     Davidson diagonalization with overlap
     ethr =  1.54E-05,  avg # of iterations =  5.5

     total cpu time spent up to now is      680.6 secs

     total energy              =    -306.87617364 Ry
     estimated scf accuracy    <       0.00007408 Ry

     iteration # 24     ecut=    80.00 Ry     beta= 0.70
     Davidson diagonalization with overlap
     ethr =  3.37E-07,  avg # of iterations = 11.6

     total cpu time spent up to now is      719.4 secs

     total energy              =    -306.87642309 Ry
     estimated scf accuracy    <       0.00010319 Ry

     iteration # 25     ecut=    80.00 Ry     beta= 0.70
     Davidson diagonalization with overlap
     ethr =  3.37E-07,  avg # of iterations =  1.5

     total cpu time spent up to now is      732.6 secs

     total energy              =    -306.87648987 Ry
     estimated scf accuracy    <       0.00003548 Ry

     iteration # 26     ecut=    80.00 Ry     beta= 0.70
     Davidson diagonalization with overlap
     ethr =  1.61E-07,  avg # of iterations = 12.1

     total cpu time spent up to now is      767.7 secs

     total energy              =    -306.87606524 Ry
     estimated scf accuracy    <       0.00096516 Ry

     iteration # 27     ecut=    80.00 Ry     beta= 0.70
     Davidson diagonalization with overlap
     ethr =  1.61E-07,  avg # of iterations = 11.5

     total cpu time spent up to now is      799.1 secs

     total energy              =    -306.87634417 Ry
     estimated scf accuracy    <       0.00019682 Ry

     iteration # 28     ecut=    80.00 Ry     beta= 0.70
     Davidson diagonalization with overlap
     ethr =  1.61E-07,  avg # of iterations = 10.9

     total cpu time spent up to now is      829.4 secs

     total energy              =    -306.87689922 Ry
     estimated scf accuracy    <       0.00063860 Ry

     iteration # 29     ecut=    80.00 Ry     beta= 0.70
     Davidson diagonalization with overlap
     ethr =  1.61E-07,  avg # of iterations =  5.7

     total cpu time spent up to now is      849.7 secs

     total energy              =    -306.87662142 Ry
     estimated scf accuracy    <       0.00123294 Ry

     iteration # 30     ecut=    80.00 Ry     beta= 0.70
     Davidson diagonalization with overlap
     ethr =  1.61E-07,  avg # of iterations =  5.6

     total cpu time spent up to now is      869.8 secs

     total energy              =    -306.87642393 Ry
     estimated scf accuracy    <       0.00060254 Ry

     iteration # 31     ecut=    80.00 Ry     beta= 0.70
     Davidson diagonalization with overlap
     ethr =  1.61E-07,  avg # of iterations =  6.5

     total cpu time spent up to now is      891.2 secs

     total energy              =    -306.87638915 Ry
     estimated scf accuracy    <       0.00012624 Ry

     iteration # 32     ecut=    80.00 Ry     beta= 0.70
     Davidson diagonalization with overlap
     ethr =  1.61E-07,  avg # of iterations =  6.2

     total cpu time spent up to now is      912.3 secs

     total energy              =    -306.87642151 Ry
     estimated scf accuracy    <       0.00000006 Ry

     iteration # 33     ecut=    80.00 Ry     beta= 0.70
     Davidson diagonalization with overlap
     c_bands:  1 eigenvalues not converged
     c_bands:  1 eigenvalues not converged
     c_bands:  1 eigenvalues not converged
     c_bands:  1 eigenvalues not converged
     c_bands:  2 eigenvalues not converged
     c_bands:  2 eigenvalues not converged
     c_bands:  2 eigenvalues not converged
     c_bands:  2 eigenvalues not converged
     c_bands:  1 eigenvalues not converged
     c_bands:  1 eigenvalues not converged
     c_bands:  2 eigenvalues not converged
     c_bands:  2 eigenvalues not converged
     c_bands:  3 eigenvalues not converged
     c_bands:  1 eigenvalues not converged
     c_bands:  1 eigenvalues not converged
     c_bands:  1 eigenvalues not converged
     c_bands:  1 eigenvalues not converged
     c_bands:  1 eigenvalues not converged
     c_bands:  1 eigenvalues not converged
     c_bands:  2 eigenvalues not converged
     c_bands:  1 eigenvalues not converged
     c_bands:  1 eigenvalues not converged
     c_bands:  2 eigenvalues not converged
     c_bands:  1 eigenvalues not converged
     c_bands:  2 eigenvalues not converged
     c_bands:  2 eigenvalues not converged
     c_bands:  3 eigenvalues not converged
     c_bands:  4 eigenvalues not converged
     c_bands:  1 eigenvalues not converged
     c_bands:  1 eigenvalues not converged
     c_bands:  4 eigenvalues not converged
     c_bands:  2 eigenvalues not converged
     c_bands:  4 eigenvalues not converged
     c_bands:  1 eigenvalues not converged
     c_bands:  1 eigenvalues not converged
     c_bands:  2 eigenvalues not converged
     c_bands:  3 eigenvalues not converged
     c_bands:  1 eigenvalues not converged
     c_bands:  1 eigenvalues not converged
     c_bands:  1 eigenvalues not converged
     c_bands:  3 eigenvalues not converged
     c_bands:  3 eigenvalues not converged
     c_bands:  2 eigenvalues not converged
     c_bands:  4 eigenvalues not converged
     c_bands:  2 eigenvalues not converged
     c_bands:  3 eigenvalues not converged
     c_bands:  2 eigenvalues not converged
     c_bands:  2 eigenvalues not converged
     c_bands:  1 eigenvalues not converged
     c_bands:  1 eigenvalues not converged
     c_bands:  2 eigenvalues not converged
     c_bands:  1 eigenvalues not converged
     c_bands:  2 eigenvalues not converged
     c_bands:  1 eigenvalues not converged
     c_bands:  4 eigenvalues not converged
     ethr =  2.84E-10,  avg # of iterations = 19.0

     total cpu time spent up to now is      975.4 secs

     total energy              =    -306.87642419 Ry
     estimated scf accuracy    <       0.00000162 Ry

     iteration # 34     ecut=    80.00 Ry     beta= 0.70
     Davidson diagonalization with overlap
     ethr =  2.84E-10,  avg # of iterations =  6.3

     total cpu time spent up to now is      996.7 secs

     total energy              =    -306.87642393 Ry
     estimated scf accuracy    <       0.00000055 Ry

     iteration # 35     ecut=    80.00 Ry     beta= 0.70
     Davidson diagonalization with overlap
     ethr =  2.84E-10,  avg # of iterations =  7.7

     total cpu time spent up to now is     1019.7 secs

     End of self-consistent calculation

          k = 0.0000 0.0000 0.0000 (  4055 PWs)   bands (ev):

   -39.7489 -39.6754 -18.8595 -18.4909 -18.4909 -18.4261 -18.4261 -18.4067
     4.0202   7.4289   9.6965  10.7025  10.7026  10.8391  11.1276

          k =-0.0000 0.0000 0.0793 (  4055 PWs)   bands (ev):

   -39.7462 -39.6783 -18.8429 -18.4885 -18.4885 -18.4286 -18.4286 -18.4245
     4.1245   7.2844   9.6520  10.6567  10.6567  10.7690  11.0685

          k =-0.0000 0.0000 0.1586 (  4078 PWs)   bands (ev):

   -39.7382 -39.6863 -18.7952 -18.4815 -18.4815 -18.4751 -18.4356 -18.4356
     4.4301   6.8532   9.6353  10.5783  10.5902  10.5902  10.9254

          k =-0.0000 0.0000 0.2380 (  4078 PWs)   bands (ev):

   -39.7264 -39.6983 -18.7232 -18.5500 -18.4710 -18.4710 -18.4462 -18.4462
     4.9143   6.2202   9.7625  10.3050  10.5772  10.5776  10.7644

          k = 0.0000-0.0000-0.3173 (  4060 PWs)   bands (ev):

   -39.7123 -39.7123 -18.6372 -18.6372 -18.4586 -18.4586 -18.4586 -18.4586
     5.5349   5.5349  10.0094  10.0094  10.6382  10.6382  10.6382

          k = 0.0000 0.0970 0.0000 (  4067 PWs)   bands (ev):

   -39.7452 -39.6740 -18.8498 -18.5109 -18.4976 -18.4469 -18.4289 -18.4108
     4.1750   7.5613   9.5602  10.4255  10.8158  11.0024  11.0666

          k = 0.0000 0.0970 0.0793 (  4065 PWs)   bands (ev):

   -39.7425 -39.6767 -18.8342 -18.5079 -18.4950 -18.4559 -18.4315 -18.4215
     4.2777   7.4168   9.5182  10.4208  10.7574  10.8744  11.0031

          k = 0.0000 0.0970 0.1586 (  4062 PWs)   bands (ev):

   -39.7348 -39.6845 -18.7894 -18.5002 -18.4929 -18.4876 -18.4397 -18.4390
     4.5789   6.9835   9.5168  10.4259  10.5919  10.6795  11.0111

          k = 0.0000 0.0970 0.2380 (  4059 PWs)   bands (ev):

   -39.7233 -39.6961 -18.7219 -18.5608 -18.4866 -18.4765 -18.4555 -18.4502
     5.0565   6.3505   9.6667  10.2656  10.4737  10.6637  10.7337

          k = 0.0000 0.0970-0.3173 (  4072 PWs)   bands (ev):

   -39.7097 -39.7097 -18.6416 -18.6416 -18.4714 -18.4714 -18.4633 -18.4633
     5.6700   5.6700   9.9380   9.9380  10.5791  10.5797  10.7248

          k = 0.0000 0.1941 0.0000 (  4083 PWs)   bands (ev):

   -39.7348 -39.6701 -18.8220 -18.5657 -18.5152 -18.5028 -18.4369 -18.4233
     4.6239   7.9148   9.2484   9.9975  10.7694  11.1445  11.1714

          k = 0.0000 0.1941 0.0793 (  4068 PWs)   bands (ev):

   -39.7324 -39.6725 -18.8098 -18.5611 -18.5136 -18.5123 -18.4399 -18.4302
     4.7214   7.7721   9.2176  10.0173  10.7604  10.9066  10.9837

          k = 0.0000 0.1941 0.1586 (  4056 PWs)   bands (ev):

   -39.7254 -39.6796 -18.7749 -18.5541 -18.5393 -18.5038 -18.4484 -18.4482
     5.0075   7.3356   9.2583  10.0752  10.5261  10.7709  10.8892

          k = 0.0000 0.1941 0.2380 (  4076 PWs)   bands (ev):

   -39.7149 -39.6901 -18.7225 -18.5994 -18.5241 -18.4912 -18.4724 -18.4612
     5.4626   6.7093   9.4546  10.0638  10.3024  10.6153  10.8832

          k = 0.0000 0.1941-0.3173 (  4076 PWs)   bands (ev):

   -39.7026 -39.7026 -18.6607 -18.6607 -18.4989 -18.4989 -18.4762 -18.4762
     6.0502   6.0502   9.7562   9.7562  10.4255  10.4255  10.9585

          k = 0.0000 0.2911 0.0000 (  4059 PWs)   bands (ev):

   -39.7200 -39.6653 -18.7802 -18.6413 -18.5768 -18.5384 -18.4487 -18.4442
     5.3183   8.3226   8.9123   9.5615  10.5483  10.8287  10.9171

          k = 0.0000 0.2911 0.0793 (  4069 PWs)   bands (ev):

   -39.7179 -39.6674 -18.7764 -18.6317 -18.5871 -18.5350 -18.4521 -18.4476
     5.4053   8.1885   8.9090   9.5933  10.5157  10.7720  10.9308

          k = 0.0000 0.2911 0.1586 (  4066 PWs)   bands (ev):

   -39.7120 -39.6734 -18.7633 -18.6276 -18.5928 -18.5254 -18.4619 -18.4601
     5.6608   7.7671   9.0144   9.6724  10.3610  10.6620  10.9825

          k = 0.0000 0.2911 0.2380 (  4076 PWs)   bands (ev):

   -39.7032 -39.6823 -18.7389 -18.6638 -18.5579 -18.5109 -18.4840 -18.4765
     6.0672   7.1880   9.2439   9.7110  10.1978  10.4845  11.0880

          k = 0.0000 0.2911-0.3173 (  4072 PWs)   bands (ev):

   -39.6927 -39.6927 -18.7043 -18.7043 -18.5182 -18.5182 -18.4937 -18.4937
     6.5933   6.5933   9.5241   9.5241  10.2773  10.2773  11.2482

          k = 0.0000 0.3881 0.0000 (  4090 PWs)   bands (ev):

   -39.7040 -39.6618 -18.7311 -18.7177 -18.6483 -18.5609 -18.4723 -18.4610
     6.1689   8.4709   8.6383   9.2283  10.5805  10.5817  10.6968

          k = 0.0000 0.3881 0.0793 (  4079 PWs)   bands (ev):

   -39.7024 -39.6634 -18.7594 -18.6843 -18.6537 -18.5571 -18.4720 -18.4649
     6.2362   8.3431   8.6968   9.2710  10.4245  10.6687  10.7484

          k = 0.0000 0.3881 0.1586 (  4074 PWs)   bands (ev):

   -39.6978 -39.6680 -18.7778 -18.6978 -18.6175 -18.5464 -18.4761 -18.4758
     6.4332   8.0175   8.8588   9.3619  10.2723  10.6168  10.8996

          k = 0.0000 0.3881 0.2380 (  4076 PWs)   bands (ev):

   -39.6910 -39.6748 -18.7782 -18.7319 -18.5668 -18.5303 -18.4922 -18.4921
     6.7449   7.5897   9.0906   9.4168  10.1823  10.4402  11.1396

          k = 0.0000 0.3881-0.3173 (  4070 PWs)   bands (ev):

   -39.6829 -39.6829 -18.7614 -18.7614 -18.5231 -18.5231 -18.5112 -18.5112
     7.1446   7.1446   9.3175   9.3175  10.2480  10.2480  11.4472

          k = 0.0000 0.4852 0.0000 (  4090 PWs)   bands (ev):

   -39.6907 -39.6607 -18.7737 -18.6994 -18.6855 -18.5769 -18.5024 -18.4704
     7.0230   8.2977   8.4643   8.9864  10.4123  10.5504  10.8025

          k = 0.0000 0.4852 0.0793 (  4083 PWs)   bands (ev):

   -39.6896 -39.6619 -18.7899 -18.7152 -18.6573 -18.5729 -18.4983 -18.4745
     7.0518   8.2075   8.5650   9.0138  10.4204  10.6150  10.7536

          k = 0.0000 0.4852 0.1586 (  4074 PWs)   bands (ev):

   -39.6863 -39.6651 -18.8110 -18.7473 -18.6080 -18.5615 -18.4936 -18.4861
     7.1419   8.0165   8.7666   9.1104  10.4099  10.6267  10.8056

          k = 0.0000 0.4852 0.2380 (  4075 PWs)   bands (ev):

   -39.6814 -39.6700 -18.8180 -18.7818 -18.5597 -18.5443 -18.5035 -18.4997
     7.2978   7.7682   9.0086   9.2255  10.3482  10.4766  11.1115

          k = 0.0000 0.4852-0.3173 (  4082 PWs)   bands (ev):

   -39.6757 -39.6757 -18.8075 -18.8075 -18.5239 -18.5239 -18.5219 -18.5219
     7.5142   7.5142   9.2036   9.2036  10.3538  10.3538  11.5125

          k =-0.0000-0.5822-0.0000 (  4072 PWs)   bands (ev):

   -39.6851 -39.6611 -18.7943 -18.7178 -18.6641 -18.5827 -18.5182 -18.4738
     7.5326   8.0666   8.4050   8.8736  10.3521  10.4993  10.9054

          k =-0.0000-0.5822 0.0793 (  4082 PWs)   bands (ev):

   -39.6842 -39.6620 -18.8071 -18.7322 -18.6426 -18.5786 -18.5120 -18.4780
     7.5042   8.0465   8.5279   8.8635  10.4133  10.5675  10.8306

          k =-0.0000-0.5822 0.1586 (  4074 PWs)   bands (ev):

   -39.6816 -39.6646 -18.8265 -18.7652 -18.5986 -18.5669 -18.5027 -18.4899
     7.4775   7.9562   8.8122   8.9047  10.5201  10.6424  10.7690

          k =-0.0000-0.5822 0.2380 (  4084 PWs)   bands (ev):

   -39.6777 -39.6685 -18.8342 -18.7998 -18.5544 -18.5494 -18.5077 -18.5036
     7.5158   7.7952   9.0451   9.0944  10.4552  10.5309  11.0935

          k =-0.0000-0.5822-0.3173 (  4100 PWs)   bands (ev):

   -39.6731 -39.6731 -18.8249 -18.8249 -18.5286 -18.5286 -18.5209 -18.5209
     7.6298   7.6298   9.1746   9.1746  10.4362  10.4362  11.5218

          k = 0.0840 0.1456 0.0000 (  4063 PWs)   bands (ev):

   -39.7382 -39.6713 -18.8310 -18.5444 -18.5185 -18.4777 -18.4370 -18.4192
     4.4771   7.8066   9.3417  10.1133  10.8509  11.0531  11.1206

          k = 0.0840 0.1456 0.0793 (  4062 PWs)   bands (ev):

   -39.7356 -39.6738 -18.8176 -18.5403 -18.5178 -18.4867 -18.4399 -18.4265
     4.5765   7.6629   9.3064  10.1286  10.8601  10.8735  10.9401

          k = 0.0840 0.1456 0.1586 (  4068 PWs)   bands (ev):

   -39.7284 -39.6811 -18.7792 -18.5331 -18.5287 -18.4981 -18.4480 -18.4439
     4.8679   7.2265   9.3330  10.1777  10.5534  10.7959  10.8455

          k = 0.0840 0.1456 0.2380 (  4069 PWs)   bands (ev):

   -39.7176 -39.6920 -18.7214 -18.5857 -18.5112 -18.4905 -18.4644 -18.4599
     5.3311   6.5962   9.5169  10.1445  10.3348  10.6429  10.8287

          k = 0.0840 0.1456-0.3173 (  4072 PWs)   bands (ev):

   -39.7048 -39.7048 -18.6531 -18.6531 -18.4915 -18.4915 -18.4723 -18.4723
     5.9284   5.9284   9.8145   9.8145  10.4656  10.4656  10.8871

          k = 0.0840 0.2426 0.0000 (  4060 PWs)   bands (ev):

   -39.7255 -39.6670 -18.7962 -18.6044 -18.5673 -18.5153 -18.4510 -18.4359
     5.0511   8.2080   9.0374   9.6880  10.6179  10.8133  11.1152

          k = 0.0840 0.2426 0.0793 (  4061 PWs)   bands (ev):

   -39.7233 -39.6692 -18.7882 -18.5979 -18.5717 -18.5191 -18.4545 -18.4394
     5.1428   8.0692   9.0184   9.7166  10.6244  10.7405  11.0353

          k = 0.0840 0.2426 0.1586 (  4065 PWs)   bands (ev):

   -39.7170 -39.6756 -18.7649 -18.5992 -18.5723 -18.5201 -18.4642 -18.4514
     5.4121   7.6335   9.0972   9.7946  10.4352  10.6663  10.9814

          k = 0.0840 0.2426 0.2380 (  4069 PWs)   bands (ev):

   -39.7075 -39.6851 -18.7288 -18.6376 -18.5448 -18.5125 -18.4788 -18.4709
     5.8410   7.0246   9.3199   9.8400  10.2158  10.4979  11.0359

          k = 0.0840 0.2426-0.3173 (  4066 PWs)   bands (ev):

   -39.6963 -39.6963 -18.6842 -18.6842 -18.5159 -18.5159 -18.4868 -18.4868
     6.3965   6.3965   9.6176   9.6176  10.2937  10.2938  11.1466

          k = 0.0840 0.3396 0.0000 (  4077 PWs)   bands (ev):

   -39.7101 -39.6629 -18.7504 -18.6791 -18.6265 -18.5501 -18.4659 -18.4607
     5.8314   8.5222   8.7567   9.3063  10.5173  10.5536  10.8685

          k = 0.0840 0.3396 0.0793 (  4077 PWs)   bands (ev):

   -39.7083 -39.6647 -18.7577 -18.6641 -18.6304 -18.5501 -18.4714 -18.4592
     5.9090   8.3898   8.7847   9.3456  10.4132  10.6357  10.8473

          k = 0.0840 0.3396 0.1586 (  4072 PWs)   bands (ev):

   -39.7032 -39.6698 -18.7636 -18.6704 -18.6082 -18.5450 -18.4831 -18.4630
     6.1364   8.0010   8.9296   9.4392  10.2642  10.5861  10.9170

          k = 0.0840 0.3396 0.2380 (  4067 PWs)   bands (ev):

   -39.6955 -39.6775 -18.7559 -18.7024 -18.5663 -18.5328 -18.4985 -18.4778
     6.4975   7.4883   9.1623   9.5143  10.1267  10.3835  11.1145

          k = 0.0840 0.3396-0.3173 (  4068 PWs)   bands (ev):

   -39.6865 -39.6865 -18.7340 -18.7340 -18.5337 -18.5337 -18.4992 -18.4992
     6.9635   6.9635   9.4077   9.4077  10.1752  10.1752  11.3610

          k = 0.0840 0.4367 0.0000 (  4079 PWs)   bands (ev):

   -39.6952 -39.6608 -18.7450 -18.7017 -18.6782 -18.5771 -18.4912 -18.4788
     6.7030   8.4820   8.5530   9.0494  10.3879  10.6282  10.6956

          k = 0.0840 0.4367 0.0793 (  4082 PWs)   bands (ev):

   -39.6939 -39.6621 -18.7670 -18.6992 -18.6609 -18.5743 -18.4921 -18.4784
     6.7543   8.3598   8.6414   9.1011  10.3392  10.6180  10.7298

          k = 0.0840 0.4367 0.1586 (  4084 PWs)   bands (ev):

   -39.6902 -39.6658 -18.7893 -18.7260 -18.6148 -18.5628 -18.5016 -18.4769
     6.9048   8.1108   8.8161   9.2177  10.2352  10.5154  10.8771

          k = 0.0840 0.4367 0.2380 (  4077 PWs)   bands (ev):

   -39.6846 -39.6714 -18.7954 -18.7585 -18.5748 -18.5422 -18.5160 -18.4842
     7.1435   7.7886   9.0515   9.3153  10.1451  10.3249  11.1346

          k = 0.0840 0.4367-0.3173 (  4068 PWs)   bands (ev):

   -39.6780 -39.6780 -18.7841 -18.7841 -18.5474 -18.5474 -18.5040 -18.5040
     7.4496   7.4496   9.2635   9.2635  10.1637  10.1638  11.4723

          k = 0.0840 0.5337 0.0000 (  4075 PWs)   bands (ev):

   -39.6851 -39.6611 -18.7832 -18.7082 -18.6645 -18.5918 -18.5178 -18.4862
     7.4589   8.2308   8.4476   8.8687  10.3310  10.4611  10.8997

          k = 0.0840 0.5337 0.0793 (  4079 PWs)   bands (ev):

   -39.6842 -39.6620 -18.7959 -18.7232 -18.6448 -18.5857 -18.5141 -18.4877
     7.4581   8.1821   8.5583   8.8859  10.3502  10.4721  10.8817

          k = 0.0840 0.5337 0.1586 (  4078 PWs)   bands (ev):

   -39.6816 -39.6646 -18.8153 -18.7560 -18.6101 -18.5655 -18.5165 -18.4872
     7.4797   8.0600   8.7907   8.9899  10.3513  10.4245  10.9449

          k = 0.0840 0.5337 0.2380 (  4081 PWs)   bands (ev):

   -39.6777 -39.6685 -18.8233 -18.7901 -18.5809 -18.5378 -18.5284 -18.4893
     7.5572   7.8811   9.0376   9.1754  10.2316  10.3239  11.1918

          k = 0.0840 0.5337-0.3173 (  4092 PWs)   bands (ev):

   -39.6731 -39.6731 -18.8145 -18.8145 -18.5559 -18.5559 -18.5044 -18.5044
     7.6980   7.6980   9.2175   9.2175  10.2047  10.2047  11.5550

          k = 0.1681 0.2911 0.0000 (  4067 PWs)   bands (ev):

   -39.7122 -39.6634 -18.7570 -18.6458 -18.6377 -18.5373 -18.4766 -18.4569
     5.7167   8.5648   8.8162   9.3050  10.5036  10.5059  10.9625

          k = 0.1681 0.2911 0.0793 (  4068 PWs)   bands (ev):

   -39.7104 -39.6652 -18.7590 -18.6423 -18.6311 -18.5433 -18.4800 -18.4558
     5.7978   8.4288   8.8299   9.3401  10.4541  10.5563  10.9035

          k = 0.1681 0.2911 0.1586 (  4082 PWs)   bands (ev):

   -39.7051 -39.6705 -18.7577 -18.6596 -18.5968 -18.5498 -18.4891 -18.4591
     6.0357   8.0090   8.9677   9.4368  10.3039  10.5453  10.8915

          k = 0.1681 0.2911 0.2380 (  4079 PWs)   bands (ev):

   -39.6972 -39.6785 -18.7453 -18.6893 -18.5588 -18.5462 -18.4995 -18.4734
     6.4143   7.4603   9.2015   9.5392  10.1174  10.3387  11.0717

          k = 0.1681 0.2911-0.3173 (  4072 PWs)   bands (ev):

   -39.6878 -39.6878 -18.7210 -18.7210 -18.5405 -18.5405 -18.4950 -18.4950
     6.9045   6.9045   9.4529   9.4529  10.1279  10.1279  11.3034

          k = 0.1681 0.3881 0.0000 (  4083 PWs)   bands (ev):

   -39.6977 -39.6610 -18.7104 -18.7071 -18.6748 -18.5730 -18.5010 -18.4853
     6.5388   8.6451   8.7150   9.0046  10.2879  10.5994  10.7162

          k = 0.1681 0.3881 0.0793 (  4085 PWs)   bands (ev):

   -39.6963 -39.6624 -18.7421 -18.6975 -18.6491 -18.5784 -18.5057 -18.4786
     6.6022   8.5294   8.7749   9.0523  10.2533  10.6204  10.6633

          k = 0.1681 0.3881 0.1586 (  4082 PWs)   bands (ev):

   -39.6923 -39.6663 -18.7647 -18.7130 -18.6069 -18.5794 -18.5153 -18.4717
     6.7876   8.2453   8.9250   9.1665  10.1576  10.4276  10.7942

          k = 0.1681 0.3881 0.2380 (  4082 PWs)   bands (ev):

   -39.6863 -39.6723 -18.7708 -18.7381 -18.5845 -18.5632 -18.5175 -18.4768
     7.0798   7.8612   9.1358   9.2980  10.0263  10.1748  11.0312

          k = 0.1681 0.3881-0.3173 (  4078 PWs)   bands (ev):

   -39.6793 -39.6793 -18.7605 -18.7605 -18.5690 -18.5690 -18.4960 -18.4960
     7.4520   7.4520   9.3131   9.3131   9.9942   9.9942  11.3496

          k = 0.1681 0.4852 0.0000 (  4088 PWs)   bands (ev):

   -39.6852 -39.6610 -18.7543 -18.6920 -18.6653 -18.6076 -18.5173 -18.5171
     7.3684   8.5341   8.5428   8.8476  10.2071  10.4592  10.8652

          k = 0.1681 0.4852 0.0793 (  4086 PWs)   bands (ev):

   -39.6843 -39.6619 -18.7663 -18.7110 -18.6444 -18.6018 -18.5277 -18.5018
     7.4014   8.4362   8.6372   8.9195  10.1820  10.3940  10.8810

          k = 0.1681 0.4852 0.1586 (  4084 PWs)   bands (ev):

   -39.6817 -39.6645 -18.7863 -18.7396 -18.6288 -18.5741 -18.5372 -18.4863
     7.4995   8.2818   8.8075   9.0866  10.0960  10.2142  10.9652

          k = 0.1681 0.4852 0.2380 (  4090 PWs)   bands (ev):

   -39.6777 -39.6684 -18.7962 -18.7692 -18.6123 -18.5713 -18.5204 -18.4821
     7.6573   8.0804   9.0495   9.2653   9.9615   9.9772  11.1542

          k = 0.1681 0.4852-0.3173 (  4086 PWs)   bands (ev):

   -39.6731 -39.6731 -18.7901 -18.7901 -18.5914 -18.5914 -18.4941 -18.4941
     7.8602   7.8602   9.2752   9.2752   9.8610   9.8610  11.4465

          k = 0.1681 0.5822 0.0000 (  4073 PWs)   bands (ev):

   -39.6796 -39.6620 -18.7713 -18.6963 -18.6423 -18.6225 -18.5351 -18.5231
     7.8650   8.3259   8.5095   8.7532  10.2670  10.2759  10.9974

          k = 0.1681 0.5822 0.0793 (  4086 PWs)   bands (ev):

   -39.6789 -39.6627 -18.7808 -18.7121 -18.6475 -18.5968 -18.5410 -18.5120
     7.8494   8.3154   8.6127   8.7815  10.2315  10.2415  11.0078

          k = 0.1681 0.5822 0.1586 (  4090 PWs)   bands (ev):

   -39.6770 -39.6646 -18.7980 -18.7459 -18.6406 -18.5555 -18.5553 -18.4939
     7.8453   8.2541   8.8656   8.8986  10.1088  10.1260  11.0822

          k = 0.1681 0.5822 0.2380 (  4087 PWs)   bands (ev):

   -39.6742 -39.6674 -18.8072 -18.7791 -18.6229 -18.5759 -18.5180 -18.4853
     7.8951   8.1344   9.1123   9.1694   9.8842   9.9501  11.2631

          k = 0.1681 0.5822-0.3173 (  4098 PWs)   bands (ev):

   -39.6708 -39.6708 -18.8010 -18.8010 -18.5998 -18.5998 -18.4931 -18.4931
     8.0001   8.0001   9.3107   9.3107   9.7699   9.7699  11.5406

          k = 0.2521 0.4367 0.0000 (  4111 PWs)   bands (ev):

   -39.6853 -39.6609 -18.7294 -18.6960 -18.6656 -18.6064 -18.5401 -18.5167
     7.3361   8.5970   8.7387   8.7849  10.1261  10.4722  10.8311

          k = 0.2521 0.4367 0.0793 (  4095 PWs)   bands (ev):

   -39.6843 -39.6619 -18.7317 -18.7283 -18.6285 -18.6182 -18.5429 -18.5044
     7.3823   8.5356   8.7772   8.8653  10.1113  10.3639  10.8396

          k = 0.2521 0.4367 0.1586 (  4087 PWs)   bands (ev):

   -39.6817 -39.6645 -18.7600 -18.7421 -18.6307 -18.5912 -18.5427 -18.4864
     7.5152   8.4017   8.8912   9.0333  10.0464  10.1111  10.8929

          k = 0.2521 0.4367 0.2380 (  4087 PWs)   bands (ev):

   -39.6777 -39.6684 -18.7760 -18.7604 -18.6262 -18.5923 -18.5172 -18.4801
     7.7183   8.2043   9.0696   9.2193   9.8422   9.9079  11.0518

          k = 0.2521 0.4367-0.3173 (  4088 PWs)   bands (ev):

   -39.6731 -39.6731 -18.7750 -18.7750 -18.6101 -18.6101 -18.4910 -18.4910
     7.9620   7.9620   9.2502   9.2502   9.7597   9.7597  11.3441

          k = 0.2521 0.5337 0.0000 (  4082 PWs)   bands (ev):

   -39.6758 -39.6632 -18.7462 -18.6835 -18.6445 -18.6255 -18.5647 -18.5491
     8.0250   8.5615   8.5898   8.6830  10.1030  10.2418  11.0616

          k = 0.2521 0.5337 0.0793 (  4084 PWs)   bands (ev):

   -39.6753 -39.6637 -18.7497 -18.7052 -18.6622 -18.5962 -18.5699 -18.5299
     8.0509   8.5277   8.6364   8.7705  10.0638  10.1436  11.0642

          k = 0.2521 0.5337 0.1586 (  4092 PWs)   bands (ev):

   -39.6739 -39.6651 -18.7638 -18.7355 -18.6730 -18.5939 -18.5433 -18.5025
     8.1230   8.4841   8.7697   8.9613   9.8912   9.9468  11.0967

          k = 0.2521 0.5337 0.2380 (  4100 PWs)   bands (ev):

   -39.6719 -39.6671 -18.7778 -18.7624 -18.6616 -18.6148 -18.5081 -18.4862
     8.2259   8.4246   8.9859   9.2099   9.5814   9.7421  11.2104

          k = 0.2521 0.5337-0.3173 (  4100 PWs)   bands (ev):

   -39.6695 -39.6695 -18.7781 -18.7781 -18.6393 -18.6393 -18.4878 -18.4878
     8.3351   8.3351   9.2649   9.2649   9.4848   9.4848  11.4456

          k = 0.3361 0.5822 0.0000 (  4077 PWs)   bands (ev):

   -39.6682 -39.6682 -18.7361 -18.6676 -18.6676 -18.5925 -18.5859 -18.5859
     8.4686   8.4686   8.5683   8.6225  10.1047  10.1047  11.1598

          k = 0.3361 0.5822 0.0793 (  4104 PWs)   bands (ev):

   -39.6682 -39.6682 -18.7307 -18.6921 -18.6921 -18.5981 -18.5610 -18.5610
     8.5148   8.5148   8.5874   8.6437  10.0258  10.0258  11.1571

          k = 0.3361 0.5822 0.1586 (  4077 PWs)   bands (ev):

   -39.6682 -39.6682 -18.7293 -18.7293 -18.7154 -18.6138 -18.5231 -18.5231
     8.6377   8.6463   8.6463   8.6936   9.8225   9.8225  11.1710

          k = 0.3361 0.5822 0.2380 (  4104 PWs)   bands (ev):

   -39.6682 -39.6682 -18.7561 -18.7561 -18.6922 -18.6373 -18.4955 -18.4955
     8.6986   8.7368   8.8343   8.8343   9.5707   9.5707  11.2561

          k = 0.3361 0.5822-0.3173 (  4128 PWs)   bands (ev):

   -39.6682 -39.6682 -18.7657 -18.7657 -18.6648 -18.6648 -18.4856 -18.4856
     8.7399   8.7399   8.9622   8.9622   9.4182   9.4182  11.4650

     the Fermi energy is     9.1320 ev

!    total energy              =    -306.87642406 Ry
     total all-electron energy =     -3050.017195 Ry
     estimated scf accuracy    <          2.1E-11 Ry
     smearing contrib. (-TS)   =      -0.00101279 Ry
     internal energy E=F+TS    =    -306.87541128 Ry

     The total energy is F=E-TS. E is the sum of the following terms:
     one-electron contribution =     -72.60352697 Ry
     hartree contribution      =      41.70477904 Ry
     xc contribution           =     -34.56375231 Ry
     ewald contribution        =    -127.65602504 Ry
     one-center paw contrib.   =    -113.75688599 Ry

     convergence has been achieved in  35 iterations

     Forces acting on atoms (cartesian axes, Ry/au):

     atom    1 type  1   force =     0.00000000    0.00000000   -0.00000000
     atom    2 type  1   force =    -0.00000000    0.00000000    0.00000000
     The non-local contrib.  to forces
     atom    1 type  1   force =     0.00000000   -0.00000000   -0.00000000
     atom    2 type  1   force =    -0.00000000    0.00000000    0.00000000
     The ionic contribution  to forces
     atom    1 type  1   force =     0.00000000   -0.00000000   -0.00000000
     atom    2 type  1   force =    -0.00000000    0.00000000    0.00000000
     The local contribution  to forces
     atom    1 type  1   force =     0.00000000    0.00000000    0.00000000
     atom    2 type  1   force =    -0.00000000    0.00000000    0.00000000
     The core correction contribution to forces
     atom    1 type  1   force =     0.00000000   -0.00000000    0.00000000
     atom    2 type  1   force =     0.00000000   -0.00000000   -0.00000000
     The Hubbard contrib.    to forces
     atom    1 type  1   force =     0.00000000    0.00000000    0.00000000
     atom    2 type  1   force =     0.00000000    0.00000000    0.00000000
     The SCF correction term to forces
     atom    1 type  1   force =    -0.00000000    0.00000000   -0.00000000
     atom    2 type  1   force =     0.00000000   -0.00000000   -0.00000000

     Total force =     0.000000     Total SCF correction =     0.000000


     Computing stress (Cartesian axis) and pressure

          total   stress  (Ry/bohr**3)                   (kbar)     P=      -42.31
  -0.00024844  -0.00000000   0.00000000          -36.55       -0.00        0.00
  -0.00000000  -0.00024844  -0.00000000           -0.00      -36.55       -0.00
   0.00000000  -0.00000000  -0.00036607            0.00       -0.00      -53.85

     Energy error            =      3.2E-03 Ry
     Gradient error          =      1.6E-27 Ry/Bohr
     Cell gradient error     =      5.4E+01 kbar

     number of scf cycles    =   2
     number of bfgs steps    =   1

     enthalpy           old  =    -306.8732337281 Ry
     enthalpy           new  =    -306.8764240614 Ry

     CASE: enthalpy          _new < enthalpy          _old

     new trust radius        =       0.0624245421 bohr
     new conv_thr            =            1.0E-10 Ry

     new unit-cell volume =    315.03965 a.u.^3 (    46.68406 Ang^3 )
     density =      3.17253 g/cm^3

CELL_PARAMETERS (alat=  6.25310370)
   0.980130451  -0.000000000   0.000000000
  -0.490065225   0.848817869  -0.000000000
   0.000000000  -0.000000000   1.548745045

ATOMIC_POSITIONS (crystal)
Sc            0.0000000000        0.0000000000        0.0000000000
Sc            0.6666666667        0.3333333333        0.5000000000



     Writing config-only to output data dir sc_vcrelax.out/scandium.save/
     NEW-OLD atomic charge density approx. for the potential

     Check: negative core charge=   -0.000009
     extrapolated charge   21.08467, renormalised to   22.00000

     total cpu time spent up to now is     1040.1 secs

     Self-consistent Calculation

     iteration #  1     ecut=    80.00 Ry     beta= 0.70
     Davidson diagonalization with overlap
     c_bands:  1 eigenvalues not converged
     c_bands:  2 eigenvalues not converged
     c_bands:  2 eigenvalues not converged
     c_bands:  1 eigenvalues not converged
     c_bands:  2 eigenvalues not converged
     c_bands:  1 eigenvalues not converged
     c_bands:  3 eigenvalues not converged
     c_bands:  3 eigenvalues not converged
     c_bands:  3 eigenvalues not converged
     c_bands:  1 eigenvalues not converged
     c_bands:  2 eigenvalues not converged
     c_bands:  3 eigenvalues not converged
     c_bands:  5 eigenvalues not converged
     c_bands:  3 eigenvalues not converged
     c_bands:  2 eigenvalues not converged
     c_bands:  3 eigenvalues not converged
     c_bands:  5 eigenvalues not converged
     c_bands:  4 eigenvalues not converged
     c_bands:  3 eigenvalues not converged
     c_bands:  5 eigenvalues not converged
     c_bands:  5 eigenvalues not converged
     c_bands:  2 eigenvalues not converged
[...]
     7.1147   9.2208   9.5665  10.1534  11.5032  11.6535  11.8036

          k = 0.0000 0.3947 0.1659 (  3664 PWs)   bands (ev):

   -38.5691 -38.5232 -17.7284 -17.6086 -17.5013 -17.4269 -17.3236 -17.3158
     7.3192   8.9407   9.7070  10.2643  11.3268  11.7407  11.8250

          k = 0.0000 0.3947 0.2488 (  3662 PWs)   bands (ev):

   -38.5586 -38.5337 -17.7280 -17.6596 -17.4325 -17.4033 -17.3474 -17.3337
     7.6425   8.5131   9.9713  10.3416  11.2186  11.5243  12.0979

          k = 0.0000 0.3947-0.3318 (  3672 PWs)   bands (ev):

   -38.5462 -38.5462 -17.7032 -17.7032 -17.3755 -17.3755 -17.3736 -17.3736
     8.0559   8.0559  10.2366  10.2366  11.2916  11.2916  12.4496

          k = 0.0000 0.4933 0.0000 (  3677 PWs)   bands (ev):

   -38.5602 -38.5141 -17.6999 -17.6117 -17.5914 -17.4679 -17.3612 -17.3121
     7.8980   9.0875   9.3316   9.8827  11.4347  11.5298  11.9704

          k = 0.0000 0.4933 0.0829 (  3679 PWs)   bands (ev):

   -38.5585 -38.5158 -17.7291 -17.6190 -17.5635 -17.4621 -17.3520 -17.3181
     7.9195   9.0312   9.4212   9.9102  11.5088  11.5365  11.9118

          k = 0.0000 0.4933 0.1659 (  3671 PWs)   bands (ev):

   -38.5535 -38.5208 -17.7624 -17.6679 -17.4923 -17.4454 -17.3395 -17.3352
     7.9948   8.8663   9.6354  10.0298  11.5129  11.7273  11.7617

          k = 0.0000 0.4933 0.2488 (  3674 PWs)   bands (ev):

   -38.5460 -38.5283 -17.7732 -17.7197 -17.4241 -17.4203 -17.3607 -17.3436
     8.1406   8.6182   9.9137  10.1833  11.4201  11.5874  12.0785

          k = 0.0000 0.4933-0.3318 (  3662 PWs)   bands (ev):

   -38.5371 -38.5371 -17.7578 -17.7578 -17.3906 -17.3906 -17.3721 -17.3721
     8.3573   8.3573  10.1545  10.1545  11.4306  11.4306  12.5401

          k =-0.0000-0.5920-0.0000 (  3664 PWs)   bands (ev):

   -38.5523 -38.5154 -17.7246 -17.6131 -17.5829 -17.4752 -17.3834 -17.3158
     8.3908   8.8666   9.2492   9.7814  11.3788  11.4812  12.0893

          k =-0.0000-0.5920 0.0829 (  3670 PWs)   bands (ev):

   -38.5509 -38.5168 -17.7475 -17.6371 -17.5478 -17.4692 -17.3708 -17.3220
     8.3418   8.8593   9.4061   9.7570  11.4572  11.5505  11.9968

          k =-0.0000-0.5920 0.1659 (  3676 PWs)   bands (ev):

   -38.5469 -38.5208 -17.7791 -17.6890 -17.4815 -17.4521 -17.3516 -17.3395
     8.2890   8.7872   9.7524   9.7840  11.6700  11.6889  11.7643

          k =-0.0000-0.5920 0.2488 (  3676 PWs)   bands (ev):

   -38.5409 -38.5268 -17.7915 -17.7414 -17.4265 -17.4177 -17.3655 -17.3487
     8.3185   8.6214   9.9511  10.0783  11.5381  11.6723  12.0627

          k =-0.0000-0.5920-0.3318 (  3664 PWs)   bands (ev):

   -38.5338 -38.5338 -17.7783 -17.7783 -17.3961 -17.3961 -17.3710 -17.3710
     8.4404   8.4404  10.1360  10.1360  11.5371  11.5371  12.5578

          k = 0.0854 0.1480 0.0000 (  3667 PWs)   bands (ev):

   -38.6248 -38.5219 -17.8049 -17.4239 -17.3935 -17.3288 -17.2768 -17.2416
     5.2956   8.6658  10.5317  11.0456  11.9216  12.0701  12.0869

          k = 0.0854 0.1480 0.0829 (  3663 PWs)   bands (ev):

   -38.6209 -38.5258 -17.7869 -17.4178 -17.3912 -17.3426 -17.2811 -17.2516
     5.4059   8.5659  10.4272  11.0570  11.8975  11.9281  11.9606

          k = 0.0854 0.1480 0.1659 (  3675 PWs)   bands (ev):

   -38.6099 -38.5371 -17.7354 -17.4047 -17.4004 -17.3651 -17.2930 -17.2762
     5.7284   8.2019  10.3394  11.0956  11.6304  11.7698  11.8980

          k = 0.0854 0.1480 0.2488 (  3673 PWs)   bands (ev):

   -38.5933 -38.5539 -17.6579 -17.4750 -17.3744 -17.3538 -17.3106 -17.3070
     6.2370   7.5855  10.4750  11.0776  11.3847  11.6719  11.7866

          k = 0.0854 0.1480-0.3318 (  3678 PWs)   bands (ev):

   -38.5736 -38.5736 -17.5661 -17.5661 -17.3457 -17.3457 -17.3284 -17.3284
     6.8836   6.8836  10.7754  10.7754  11.4813  11.4813  11.8419

          k = 0.0854 0.2467 0.0000 (  3668 PWs)   bands (ev):

   -38.6079 -38.5177 -17.7589 -17.4954 -17.4470 -17.3804 -17.2922 -17.2662
     5.8953   9.0598  10.1158  10.5731  11.7024  11.7747  12.1087

          k = 0.0854 0.2467 0.0829 (  3671 PWs)   bands (ev):

   -38.6045 -38.5212 -17.7485 -17.4858 -17.4508 -17.3890 -17.2973 -17.2696
     5.9960   8.9794  10.0265  10.6035  11.6678  11.7880  12.0051

          k = 0.0854 0.2467 0.1659 (  3679 PWs)   bands (ev):

   -38.5948 -38.5310 -17.7180 -17.4883 -17.4487 -17.3932 -17.3112 -17.2840
     6.2908   8.6232  10.0072  10.6863  11.4676  11.7681  11.9232

          k = 0.0854 0.2467 0.2488 (  3681 PWs)   bands (ev):

   -38.5802 -38.5457 -17.6698 -17.5434 -17.4093 -17.3800 -17.3311 -17.3121
     6.7573   8.0173  10.2126  10.7380  11.2518  11.5603  11.9905

          k = 0.0854 0.2467-0.3318 (  3678 PWs)   bands (ev):

   -38.5630 -38.5630 -17.6088 -17.6088 -17.3722 -17.3722 -17.3423 -17.3423
     7.3551   7.3551  10.5251  10.5251  11.3247  11.3247  12.1186

          k = 0.0854 0.3453 0.0000 (  3678 PWs)   bands (ev):

   -38.5869 -38.5143 -17.6983 -17.5854 -17.5112 -17.4291 -17.3086 -17.3020
     6.7022   9.3468   9.7282  10.1681  11.5222  11.6340  11.8726

          k = 0.0854 0.3453 0.0829 (  3670 PWs)   bands (ev):

   -38.5842 -38.5171 -17.7072 -17.5660 -17.5168 -17.4311 -17.3161 -17.2977
     6.7852   9.2973   9.6788  10.2146  11.4382  11.7104  11.8349

          k = 0.0854 0.3453 0.1659 (  3665 PWs)   bands (ev):

   -38.5763 -38.5250 -17.7141 -17.5761 -17.4892 -17.4242 -17.3325 -17.2994
     7.0278   8.9685   9.7788  10.3237  11.2873  11.6859  11.8705

          k = 0.0854 0.3453 0.2488 (  3667 PWs)   bands (ev):

   -38.5646 -38.5368 -17.7025 -17.6241 -17.4346 -17.4027 -17.3543 -17.3180
     7.4114   8.4500  10.0350  10.4177  11.1431  11.4426  12.0886

          k = 0.0854 0.3453-0.3318 (  3672 PWs)   bands (ev):

   -38.5507 -38.5507 -17.6706 -17.6706 -17.3964 -17.3964 -17.3512 -17.3512
     7.9028   7.9028  10.3108  10.3108  11.1980  11.1980  12.3623

          k = 0.0854 0.4440 0.0000 (  3673 PWs)   bands (ev):

   -38.5665 -38.5135 -17.6653 -17.6334 -17.5686 -17.4657 -17.3453 -17.3226
     7.5862   9.2787   9.4414   9.9249  11.3702  11.6398  11.8460

          k = 0.0854 0.4440 0.0829 (  3672 PWs)   bands (ev):

   -38.5644 -38.5155 -17.7052 -17.6074 -17.5600 -17.4623 -17.3425 -17.3232
     7.6362   9.2182   9.4808   9.9858  11.3612  11.6109  11.8516

          k = 0.0854 0.4440 0.1659 (  3673 PWs)   bands (ev):

   -38.5587 -38.5213 -17.7385 -17.6435 -17.5014 -17.4441 -17.3539 -17.3186
     7.7841   8.9955   9.6619  10.1292  11.2775  11.5668  11.8975

          k = 0.0854 0.4440 0.2488 (  3663 PWs)   bands (ev):

   -38.5501 -38.5299 -17.7471 -17.6922 -17.4516 -17.4081 -17.3746 -17.3255
     8.0220   8.6744   9.9407  10.2587  11.1724  11.3765  12.1391

          k = 0.0854 0.4440-0.3318 (  3664 PWs)   bands (ev):

   -38.5400 -38.5400 -17.7302 -17.7302 -17.4164 -17.4164 -17.3528 -17.3528
     8.3307   8.3307  10.2009  10.2009  11.1898  11.1898  12.5097

          k = 0.0854 0.5427 0.0000 (  3669 PWs)   bands (ev):

   -38.5524 -38.5153 -17.7116 -17.6023 -17.5834 -17.4852 -17.3828 -17.3309
     8.3268   9.0314   9.2904   9.7645  11.3241  11.4760  12.0764

          k = 0.0854 0.5427 0.0829 (  3669 PWs)   bands (ev):

   -38.5510 -38.5168 -17.7343 -17.6276 -17.5508 -17.4759 -17.3729 -17.3339
     8.3116   9.0007   9.4190   9.7754  11.3595  11.4955  12.0287

          k = 0.0854 0.5427 0.1659 (  3675 PWs)   bands (ev):

   -38.5469 -38.5208 -17.7658 -17.6788 -17.5017 -17.4432 -17.3718 -17.3326
     8.3100   8.8996   9.6780   9.9019  11.3724  11.5083  12.0033

          k = 0.0854 0.5427 0.2488 (  3677 PWs)   bands (ev):

   -38.5409 -38.5267 -17.7786 -17.7302 -17.4630 -17.4003 -17.3884 -17.3321
     8.3768   8.7174   9.9490  10.1459  11.2479  11.4193  12.2205

          k = 0.0854 0.5427-0.3318 (  3666 PWs)   bands (ev):

   -38.5338 -38.5338 -17.7661 -17.7661 -17.4280 -17.4280 -17.3518 -17.3518
     8.5221   8.5221  10.1793  10.1793  11.2518  11.2518  12.6191

          k = 0.1709 0.2960 0.0000 (  3681 PWs)   bands (ev):

   -38.5899 -38.5146 -17.7072 -17.5424 -17.5334 -17.4077 -17.3219 -17.2964
     6.5858   9.4018   9.8050  10.1577  11.4554  11.6083  11.9752

          k = 0.1709 0.2960 0.0829 (  3674 PWs)   bands (ev):

   -38.5870 -38.5175 -17.7098 -17.5391 -17.5222 -17.4188 -17.3270 -17.2926
     6.6732   9.3561   9.7333  10.1976  11.4221  11.6628  11.8968

          k = 0.1709 0.2960 0.1659 (  3665 PWs)   bands (ev):

   -38.5789 -38.5257 -17.7079 -17.5639 -17.4744 -17.4297 -17.3410 -17.2935
     6.9293   8.9999   9.8165  10.3086  11.2993  11.6464  11.8593

          k = 0.1709 0.2960 0.2488 (  3658 PWs)   bands (ev):

   -38.5667 -38.5379 -17.6902 -17.6083 -17.4224 -17.4221 -17.3568 -17.3113
     7.3346   8.4394  10.0704  10.4299  11.1214  11.3853  12.0605

          k = 0.1709 0.2960-0.3318 (  3660 PWs)   bands (ev):

   -38.5523 -38.5523 -17.6550 -17.6550 -17.4069 -17.4069 -17.3439 -17.3439
     7.8556   7.8556  10.3474  10.3474  11.1393  11.1393  12.3088

          k = 0.1709 0.3947 0.0000 (  3678 PWs)   bands (ev):

   -38.5699 -38.5134 -17.6451 -17.6190 -17.5732 -17.4526 -17.3498 -17.3370
     7.4278   9.5309   9.5479   9.8485  11.2469  11.7332  11.7424

          k = 0.1709 0.3947 0.0829 (  3671 PWs)   bands (ev):

   -38.5678 -38.5155 -17.6807 -17.6082 -17.5429 -17.4635 -17.3571 -17.3242
     7.4936   9.4400   9.5960   9.9076  11.2295  11.6488  11.7644

          k = 0.1709 0.3947 0.1659 (  3672 PWs)   bands (ev):

   -38.5616 -38.5217 -17.7113 -17.6301 -17.4908 -17.4619 -17.3717 -17.3103
     7.6857   9.1677   9.7701  10.0450  11.1530  11.4525  11.8479

          k = 0.1709 0.3947 0.2488 (  3662 PWs)   bands (ev):

   -38.5525 -38.5308 -17.7188 -17.6686 -17.4683 -17.4308 -17.3745 -17.3145
     7.9875   8.7855  10.0200  10.2055  11.0184  11.1802  12.0654

          k = 0.1709 0.3947-0.3318 (  3652 PWs)   bands (ev):

   -38.5417 -38.5417 -17.7027 -17.7027 -17.4445 -17.4445 -17.3405 -17.3405
     8.3696   8.3696  10.2309  10.2309  10.9777  10.9777  12.3981

          k = 0.1709 0.4933 0.0000 (  3669 PWs)   bands (ev):

   -38.5525 -38.5152 -17.6774 -17.5879 -17.5845 -17.4986 -17.3817 -17.3682
     8.2559   9.3408   9.3817   9.7127  11.1773  11.4966  12.0271

          k = 0.1709 0.4933 0.0829 (  3665 PWs)   bands (ev):

   -38.5511 -38.5166 -17.6988 -17.6218 -17.5458 -17.4918 -17.3851 -17.3543
     8.2840   9.2794   9.4574   9.7934  11.1706  11.4196  12.0224

          k = 0.1709 0.4933 0.1659 (  3660 PWs)   bands (ev):

   -38.5470 -38.5207 -17.7312 -17.6626 -17.5279 -17.4470 -17.3979 -17.3297
     8.3714   9.1390   9.6542   9.9931  11.1073  11.2255  12.0598

          k = 0.1709 0.4933 0.2488 (  3662 PWs)   bands (ev):

   -38.5410 -38.5267 -17.7466 -17.7068 -17.5042 -17.4427 -17.3738 -17.3209
     8.5201   8.9404   9.9462  10.2208  10.9350  10.9909  12.2257

          k = 0.1709 0.4933-0.3318 (  3654 PWs)   bands (ev):

   -38.5338 -38.5338 -17.7379 -17.7379 -17.4729 -17.4729 -17.3364 -17.3364
     8.7197   8.7197  10.2329  10.2329  10.8346  10.8346  12.5323

          k = 0.1709 0.5920 0.0000 (  3666 PWs)   bands (ev):

   -38.5446 -38.5175 -17.6985 -17.5891 -17.5535 -17.5200 -17.4069 -17.3747
     8.7288   9.1542   9.3243   9.6271  11.2008  11.3594  12.1755

          k = 0.1709 0.5920 0.0829 (  3672 PWs)   bands (ev):

   -38.5435 -38.5185 -17.7150 -17.6158 -17.5578 -17.4835 -17.4042 -17.3657
     8.6951   9.1560   9.4592   9.6473  11.1822  11.3190  12.1621

          k = 0.1709 0.5920 0.1659 (  3658 PWs)   bands (ev):

   -38.5406 -38.5214 -17.7436 -17.6690 -17.5450 -17.4235 -17.4196 -17.3396
     8.6701   9.1080   9.7648   9.7725  11.0761  11.1998  12.1882

          k = 0.1709 0.5920 0.2488 (  3662 PWs)   bands (ev):

   -38.5361 -38.5258 -17.7588 -17.7188 -17.5177 -17.4487 -17.3695 -17.3250
     8.7152   8.9797  10.0141  10.1413  10.8439  10.9949  12.3490

          k = 0.1709 0.5920-0.3318 (  3662 PWs)   bands (ev):

   -38.5310 -38.5310 -17.7507 -17.7507 -17.4835 -17.4835 -17.3347 -17.3347
     8.8295   8.8295  10.2834  10.2834  10.7480  10.7480  12.6450

          k = 0.2563 0.4440 0.0000 (  3679 PWs)   bands (ev):

   -38.5526 -38.5151 -17.6486 -17.5986 -17.5850 -17.4910 -17.3952 -17.3812
     8.2331   9.4330   9.5686   9.6130  11.0955  11.5108  11.9863

          k = 0.2563 0.4440 0.0829 (  3660 PWs)   bands (ev):

   -38.5512 -38.5166 -17.6558 -17.6513 -17.5203 -17.5118 -17.4002 -17.3595
     8.2793   9.3711   9.6130   9.7147  11.0891  11.3865  11.9844

          k = 0.2563 0.4440 0.1659 (  3649 PWs)   bands (ev):

   -38.5471 -38.5206 -17.7016 -17.6673 -17.5315 -17.4636 -17.4041 -17.3294
     8.4118   9.2522   9.7464   9.9224  11.0379  11.1017  12.0061

          k = 0.2563 0.4440 0.2488 (  3649 PWs)   bands (ev):

   -38.5410 -38.5267 -17.7237 -17.6972 -17.5221 -17.4672 -17.3683 -17.3176
     8.6118   9.0754   9.9604  10.1559  10.7944  10.8935  12.1381

          k = 0.2563 0.4440-0.3318 (  3654 PWs)   bands (ev):

   -38.5338 -38.5338 -17.7207 -17.7207 -17.4957 -17.4957 -17.3314 -17.3314
     8.8477   8.8477  10.1902  10.1902  10.7095  10.7095  12.4354

          k = 0.2563 0.5427 0.0000 (  3661 PWs)   bands (ev):

   -38.5390 -38.5197 -17.6712 -17.5811 -17.5378 -17.5308 -17.4262 -17.4233
     8.9031   9.3801   9.4022   9.5284  11.0871  11.2873  12.2402

          k = 0.2563 0.5427 0.0829 (  3668 PWs)   bands (ev):

   -38.5383 -38.5205 -17.6767 -17.6193 -17.5679 -17.4793 -17.4335 -17.3930
     8.9243   9.3573   9.4612   9.6185  11.0537  11.1787  12.2301

          k = 0.2563 0.5427 0.1659 (  3656 PWs)   bands (ev):

   -38.5362 -38.5225 -17.7014 -17.6623 -17.5846 -17.4640 -17.4049 -17.3505
     8.9867   9.3281   9.6222   9.8363  10.9047  10.9412  12.2340

          k = 0.2563 0.5427 0.2488 (  3653 PWs)   bands (ev):

   -38.5330 -38.5256 -17.7243 -17.7023 -17.5650 -17.4942 -17.3548 -17.3252
     9.0823   9.2759   9.8800  10.1267  10.5620  10.7293  12.3270

          k = 0.2563 0.5427-0.3318 (  3656 PWs)   bands (ev):

   -38.5293 -38.5293 -17.7254 -17.7254 -17.5308 -17.5308 -17.3263 -17.3263
     9.1887   9.1887  10.2042  10.2042  10.4441  10.4441  12.5683

          k = 0.3418 0.5920 0.0000 (  3651 PWs)   bands (ev):

   -38.5277 -38.5277 -17.6632 -17.5633 -17.5633 -17.4768 -17.4768 -17.4535
     9.3224   9.3224   9.3894   9.4261  11.1264  11.1264  12.3504

          k = 0.3418 0.5920 0.0829 (  3657 PWs)   bands (ev):

   -38.5277 -38.5277 -17.6554 -17.6044 -17.6044 -17.4616 -17.4351 -17.4351
     9.3737   9.3737   9.4202   9.4474  11.0429  11.0429  12.3380

          k = 0.3418 0.5920 0.1659 (  3654 PWs)   bands (ev):

   -38.5277 -38.5277 -17.6604 -17.6604 -17.6330 -17.4847 -17.3777 -17.3777
     9.4955   9.5025   9.5186   9.5186  10.8279  10.8279  12.3286

          k = 0.3418 0.5920 0.2488 (  3672 PWs)   bands (ev):

   -38.5277 -38.5277 -17.6994 -17.6994 -17.5994 -17.5191 -17.3373 -17.3373
     9.5655   9.5706   9.7214   9.7214  10.5637  10.5637  12.3930

          k = 0.3418 0.5920-0.3318 (  3660 PWs)   bands (ev):

   -38.5277 -38.5277 -17.7132 -17.7132 -17.5594 -17.5594 -17.3229 -17.3229
     9.5978   9.5978   9.8529   9.8529  10.4091  10.4091  12.6043

     the Fermi energy is    10.0439 ev

!    total energy              =    -306.88041217 Ry
     total all-electron energy =     -3050.021183 Ry
     estimated scf accuracy    <          3.9E-11 Ry
     smearing contrib. (-TS)   =      -0.00077242 Ry
     internal energy E=F+TS    =    -306.87963975 Ry

     The total energy is F=E-TS. E is the sum of the following terms:
     one-electron contribution =     -67.60146198 Ry
     hartree contribution      =      40.12562830 Ry
     xc contribution           =     -34.67058418 Ry
     ewald contribution        =    -130.97696932 Ry
     one-center paw contrib.   =    -113.75625257 Ry

     convergence has been achieved in  18 iterations

     Forces acting on atoms (cartesian axes, Ry/au):

     atom    1 type  1   force =    -0.00000000   -0.00000000   -0.00000000
     atom    2 type  1   force =     0.00000000    0.00000000    0.00000000
     The non-local contrib.  to forces
     atom    1 type  1   force =    -0.00000000   -0.00000000   -0.00000000
     atom    2 type  1   force =     0.00000000    0.00000000    0.00000000
     The ionic contribution  to forces
     atom    1 type  1   force =     0.00000000   -0.00000000   -0.00000000
     atom    2 type  1   force =    -0.00000000    0.00000000    0.00000000
     The local contribution  to forces
     atom    1 type  1   force =     0.00000000    0.00000000    0.00000000
     atom    2 type  1   force =    -0.00000000    0.00000000    0.00000000
     The core correction contribution to forces
     atom    1 type  1   force =    -0.00000000   -0.00000000   -0.00000000
     atom    2 type  1   force =     0.00000000   -0.00000000   -0.00000000
     The Hubbard contrib.    to forces
     atom    1 type  1   force =     0.00000000    0.00000000    0.00000000
     atom    2 type  1   force =     0.00000000    0.00000000    0.00000000
     The SCF correction term to forces
     atom    1 type  1   force =     0.00000000   -0.00000000    0.00000000
     atom    2 type  1   force =     0.00000000    0.00000000   -0.00000000

     Total force =     0.000000     Total SCF correction =     0.000000


     Computing stress (Cartesian axis) and pressure

          total   stress  (Ry/bohr**3)                   (kbar)     P=       -0.46
  -0.00000321   0.00000000   0.00000000           -0.47        0.00        0.00
   0.00000000  -0.00000321   0.00000000            0.00       -0.47        0.00
  -0.00000000  -0.00000000  -0.00000301           -0.00       -0.00       -0.44


     Writing all to output data dir sc_vcrelax.out/scandium.save/

     init_run     :     19.11s CPU     19.50s WALL (       2 calls)
     electrons    :   4815.62s CPU   4979.61s WALL (      10 calls)
     update_pot   :     21.41s CPU     21.52s WALL (       8 calls)
     forces       :     29.68s CPU     30.19s WALL (      10 calls)
     stress       :    137.63s CPU    139.02s WALL (      10 calls)

     Called by init_run:
     wfcinit      :     12.41s CPU     12.56s WALL (       2 calls)
     potinit      :      1.41s CPU      1.45s WALL (       2 calls)
     hinit0       :      5.01s CPU      5.02s WALL (       2 calls)

     Called by electrons:
     c_bands      :   4335.45s CPU   4487.16s WALL (     225 calls)
     sum_band     :    439.67s CPU    445.38s WALL (     225 calls)
     v_of_rho     :      2.07s CPU      2.13s WALL (     233 calls)
     newd         :     18.25s CPU     22.67s WALL (     233 calls)
     PAW_pot      :     20.66s CPU     20.72s WALL (     241 calls)
     mix_rho      :      1.62s CPU      1.76s WALL (     225 calls)

     Called by c_bands:
     init_us_2    :     71.05s CPU     74.65s WALL (   45600 calls)
     init_us_2:cp :     70.89s CPU     74.56s WALL (   45600 calls)
     cegterg      :   4186.39s CPU   4196.23s WALL (   21603 calls)

     Called by *egterg:
     cdiaghg      :     35.59s CPU     35.85s WALL (  149243 calls)
     h_psi        :   2923.27s CPU   2930.92s WALL (  150562 calls)
     s_psi        :    264.28s CPU    264.99s WALL (  150562 calls)
     g_psi        :     25.73s CPU     25.86s WALL (  128769 calls)

     Called by h_psi:
     h_psi:calbec :    255.51s CPU    255.97s WALL (  150562 calls)
     vloc_psi     :   2395.37s CPU   2402.10s WALL (  150562 calls)
     add_vuspsi   :    264.24s CPU    264.77s WALL (  150562 calls)

     General routines
     calbec       :    338.35s CPU    339.04s WALL (  177447 calls)
     fft          :      1.47s CPU      1.48s WALL (    1022 calls)
     ffts         :      0.33s CPU      0.34s WALL (     225 calls)
     fftw         :   2422.65s CPU   2429.57s WALL ( 2788913 calls)

     Parallel routines

     PWSCF        :      1h23m CPU      1h26m WALL


   This run was terminated on:  12:23:26  19Jun2023            

=------------------------------------------------------------------------------=
   JOB DONE.
=------------------------------------------------------------------------------=
