
     Program PWSCF v.7.2 starts on 21Jul2023 at 11: 0:33 

     This program is part of the open-source Quantum ESPRESSO suite
     for quantum simulation of materials; please cite
         "P. Giannozzi et al., J. Phys.:Condens. Matter 21 395502 (2009);
         "P. Giannozzi et al., J. Phys.:Condens. Matter 29 465901 (2017);
         "P. Giannozzi et al., J. Chem. Phys. 152 154105 (2020);
          URL http://www.quantum-espresso.org", 
     in publications or presentations arising from this work. More details at
     http://www.quantum-espresso.org/quote

     Parallel version (MPI), running on    20 processors

     MPI processes distributed on     1 nodes
     316193 MiB available memory on the printing compute node when the environment starts

     Waiting for input...
     Reading input from standard input

     Current dimensions of program PWSCF are:
     Max number of different atomic species (ntypx) = 10
     Max number of k-points (npk) = 120000
     Max angular momentum in pseudopotentials (lmaxx) =  4
     file Sc.pz-spn-kjpaw_psl.1.0.0.UPF: wavefunction(s)  3S 3P 3D renormalized

     K-points division:     npool     =       4
     R & G space division:  proc/nbgrp/npool/nimage =       5
     Subspace diagonalization in iterative solution of the eigenvalue problem:
     a serial algorithm will be used


     Parallelization info
     --------------------
     sticks:   dense  smooth     PW     G-vecs:    dense   smooth      PW
     Min         191      86     26                 7799     2310     399
     Max         191      87     29                 7799     2313     400
     Sum         955     433    139                38995    11561    1997

     Using Slab Decomposition



     bravais-lattice index     =            4
     lattice parameter (alat)  =       6.2531  a.u.
     unit-cell volume          =     337.5249 (a.u.)^3
     number of atoms/cell      =            2
     number of atomic types    =            1
     number of electrons       =        22.00
     number of Kohn-Sham states=           15
     kinetic-energy cutoff     =      40.0000  Ry
     charge density cutoff     =     360.0000  Ry
     scf convergence threshold =      1.0E-08
     mixing beta               =       0.7000
     number of iterations used =            8  plain     mixing
     energy convergence thresh.=      1.0E-04
     force convergence thresh. =      1.0E-03
     press convergence thresh. =      5.0E-01
     Exchange-correlation= SLA  PZ   NOGX NOGC
                           (   1   1   0   0   0   0   0)
     nstep                     =           50


     celldm(1)=   6.253104  celldm(2)=   0.000000  celldm(3)=   1.594000
     celldm(4)=   0.000000  celldm(5)=   0.000000  celldm(6)=   0.000000

     crystal axes: (cart. coord. in units of alat)
               a(1) = (   1.000000   0.000000   0.000000 )  
               a(2) = (  -0.500000   0.866025   0.000000 )  
               a(3) = (   0.000000   0.000000   1.594000 )  

     reciprocal axes: (cart. coord. in units 2 pi/alat)
               b(1) = (  1.000000  0.577350 -0.000000 )  
               b(2) = (  0.000000  1.154701  0.000000 )  
               b(3) = (  0.000000 -0.000000  0.627353 )  


     PseudoPot. # 1 for Sc read from file:
     ../../../Sc.pz-spn-kjpaw_psl.1.0.0.UPF
     MD5 check sum: 1f9095df0bb42a6568b4e9f256ff075f
     Pseudo is Projector augmented-wave + core cor, Zval = 11.0
     Generated using 'atomic' code by A. Dal Corso  v.7.1
     Shape of augmentation charge: PSQ
     Using radial grid of 1173 points,  6 beta functions with: 
                l(1) =   0
                l(2) =   0
                l(3) =   1
                l(4) =   1
                l(5) =   2
                l(6) =   2
     Q(r) pseudized with 0 coefficients 


     atomic species   valence    mass     pseudopotential
        Sc            11.00    44.59600     Sc( 1.00)

     24 Sym. Ops., with inversion, found (12 have fractional translation)



   Cartesian axes

     site n.     atom                  positions (alat units)
         1           Sc  tau(   1) = (   0.0000000   0.0000000   0.0000000  )
         2           Sc  tau(   2) = (   0.5000000   0.2886751   0.7970000  )

     number of k points=    95  Marzari-Vanderbilt smearing, width (Ry)=  0.0200
                       cart. coord. in units 2pi/alat
        k(    1) = (   0.0000000   0.0000000   0.0000000), wk =   0.0017361
        k(    2) = (   0.0000000   0.0000000   0.0784191), wk =   0.0034722
        k(    3) = (   0.0000000   0.0000000   0.1568381), wk =   0.0034722
        k(    4) = (   0.0000000   0.0000000   0.2352572), wk =   0.0034722
        k(    5) = (   0.0000000   0.0000000  -0.3136763), wk =   0.0017361
        k(    6) = (   0.0000000   0.0962250   0.0000000), wk =   0.0104167
        k(    7) = (   0.0000000   0.0962250   0.0784191), wk =   0.0208333
        k(    8) = (   0.0000000   0.0962250   0.1568381), wk =   0.0208333
        k(    9) = (   0.0000000   0.0962250   0.2352572), wk =   0.0208333
        k(   10) = (   0.0000000   0.0962250  -0.3136763), wk =   0.0104167
        k(   11) = (   0.0000000   0.1924501   0.0000000), wk =   0.0104167
        k(   12) = (   0.0000000   0.1924501   0.0784191), wk =   0.0208333
        k(   13) = (   0.0000000   0.1924501   0.1568381), wk =   0.0208333
        k(   14) = (   0.0000000   0.1924501   0.2352572), wk =   0.0208333
        k(   15) = (   0.0000000   0.1924501  -0.3136763), wk =   0.0104167
        k(   16) = (   0.0000000   0.2886751   0.0000000), wk =   0.0104167
        k(   17) = (   0.0000000   0.2886751   0.0784191), wk =   0.0208333
        k(   18) = (   0.0000000   0.2886751   0.1568381), wk =   0.0208333
        k(   19) = (   0.0000000   0.2886751   0.2352572), wk =   0.0208333
        k(   20) = (   0.0000000   0.2886751  -0.3136763), wk =   0.0104167
        k(   21) = (   0.0000000   0.3849002   0.0000000), wk =   0.0104167
        k(   22) = (   0.0000000   0.3849002   0.0784191), wk =   0.0208333
        k(   23) = (   0.0000000   0.3849002   0.1568381), wk =   0.0208333
        k(   24) = (   0.0000000   0.3849002   0.2352572), wk =   0.0208333
        k(   25) = (   0.0000000   0.3849002  -0.3136763), wk =   0.0104167
        k(   26) = (   0.0000000   0.4811252   0.0000000), wk =   0.0104167
        k(   27) = (   0.0000000   0.4811252   0.0784191), wk =   0.0208333
        k(   28) = (   0.0000000   0.4811252   0.1568381), wk =   0.0208333
        k(   29) = (   0.0000000   0.4811252   0.2352572), wk =   0.0208333
        k(   30) = (   0.0000000   0.4811252  -0.3136763), wk =   0.0104167
        k(   31) = (   0.0000000  -0.5773503   0.0000000), wk =   0.0052083
        k(   32) = (   0.0000000  -0.5773503   0.0784191), wk =   0.0104167
        k(   33) = (   0.0000000  -0.5773503   0.1568381), wk =   0.0104167
        k(   34) = (   0.0000000  -0.5773503   0.2352572), wk =   0.0104167
        k(   35) = (   0.0000000  -0.5773503  -0.3136763), wk =   0.0052083
        k(   36) = (   0.0833333   0.1443376   0.0000000), wk =   0.0104167
        k(   37) = (   0.0833333   0.1443376   0.0784191), wk =   0.0208333
        k(   38) = (   0.0833333   0.1443376   0.1568381), wk =   0.0208333
        k(   39) = (   0.0833333   0.1443376   0.2352572), wk =   0.0208333
        k(   40) = (   0.0833333   0.1443376  -0.3136763), wk =   0.0104167
        k(   41) = (   0.0833333   0.2405626   0.0000000), wk =   0.0208333
        k(   42) = (   0.0833333   0.2405626   0.0784191), wk =   0.0416667
        k(   43) = (   0.0833333   0.2405626   0.1568381), wk =   0.0416667
        k(   44) = (   0.0833333   0.2405626   0.2352572), wk =   0.0416667
        k(   45) = (   0.0833333   0.2405626  -0.3136763), wk =   0.0208333
        k(   46) = (   0.0833333   0.3367877   0.0000000), wk =   0.0208333
        k(   47) = (   0.0833333   0.3367877   0.0784191), wk =   0.0416667
        k(   48) = (   0.0833333   0.3367877   0.1568381), wk =   0.0416667
        k(   49) = (   0.0833333   0.3367877   0.2352572), wk =   0.0416667
        k(   50) = (   0.0833333   0.3367877  -0.3136763), wk =   0.0208333
        k(   51) = (   0.0833333   0.4330127   0.0000000), wk =   0.0208333
        k(   52) = (   0.0833333   0.4330127   0.0784191), wk =   0.0416667
        k(   53) = (   0.0833333   0.4330127   0.1568381), wk =   0.0416667
        k(   54) = (   0.0833333   0.4330127   0.2352572), wk =   0.0416667
        k(   55) = (   0.0833333   0.4330127  -0.3136763), wk =   0.0208333
        k(   56) = (   0.0833333   0.5292377   0.0000000), wk =   0.0208333
        k(   57) = (   0.0833333   0.5292377   0.0784191), wk =   0.0416667
        k(   58) = (   0.0833333   0.5292377   0.1568381), wk =   0.0416667
        k(   59) = (   0.0833333   0.5292377   0.2352572), wk =   0.0416667
        k(   60) = (   0.0833333   0.5292377  -0.3136763), wk =   0.0208333
        k(   61) = (   0.1666667   0.2886751   0.0000000), wk =   0.0104167
        k(   62) = (   0.1666667   0.2886751   0.0784191), wk =   0.0208333
        k(   63) = (   0.1666667   0.2886751   0.1568381), wk =   0.0208333
        k(   64) = (   0.1666667   0.2886751   0.2352572), wk =   0.0208333
        k(   65) = (   0.1666667   0.2886751  -0.3136763), wk =   0.0104167
        k(   66) = (   0.1666667   0.3849002   0.0000000), wk =   0.0208333
        k(   67) = (   0.1666667   0.3849002   0.0784191), wk =   0.0416667
        k(   68) = (   0.1666667   0.3849002   0.1568381), wk =   0.0416667
        k(   69) = (   0.1666667   0.3849002   0.2352572), wk =   0.0416667
        k(   70) = (   0.1666667   0.3849002  -0.3136763), wk =   0.0208333
        k(   71) = (   0.1666667   0.4811252   0.0000000), wk =   0.0208333
        k(   72) = (   0.1666667   0.4811252   0.0784191), wk =   0.0416667
        k(   73) = (   0.1666667   0.4811252   0.1568381), wk =   0.0416667
        k(   74) = (   0.1666667   0.4811252   0.2352572), wk =   0.0416667
        k(   75) = (   0.1666667   0.4811252  -0.3136763), wk =   0.0208333
        k(   76) = (   0.1666667   0.5773503   0.0000000), wk =   0.0104167
        k(   77) = (   0.1666667   0.5773503   0.0784191), wk =   0.0208333
        k(   78) = (   0.1666667   0.5773503   0.1568381), wk =   0.0208333
        k(   79) = (   0.1666667   0.5773503   0.2352572), wk =   0.0208333
        k(   80) = (   0.1666667   0.5773503  -0.3136763), wk =   0.0104167
        k(   81) = (   0.2500000   0.4330127   0.0000000), wk =   0.0104167
        k(   82) = (   0.2500000   0.4330127   0.0784191), wk =   0.0208333
        k(   83) = (   0.2500000   0.4330127   0.1568381), wk =   0.0208333
        k(   84) = (   0.2500000   0.4330127   0.2352572), wk =   0.0208333
        k(   85) = (   0.2500000   0.4330127  -0.3136763), wk =   0.0104167
        k(   86) = (   0.2500000   0.5292377   0.0000000), wk =   0.0208333
        k(   87) = (   0.2500000   0.5292377   0.0784191), wk =   0.0416667
        k(   88) = (   0.2500000   0.5292377   0.1568381), wk =   0.0416667
        k(   89) = (   0.2500000   0.5292377   0.2352572), wk =   0.0416667
        k(   90) = (   0.2500000   0.5292377  -0.3136763), wk =   0.0208333
        k(   91) = (   0.3333333   0.5773503   0.0000000), wk =   0.0034722
        k(   92) = (   0.3333333   0.5773503   0.0784191), wk =   0.0069444
        k(   93) = (   0.3333333   0.5773503   0.1568381), wk =   0.0069444
        k(   94) = (   0.3333333   0.5773503   0.2352572), wk =   0.0069444
        k(   95) = (   0.3333333   0.5773503  -0.3136763), wk =   0.0034722

     Dense  grid:    38995 G-vectors     FFT dimensions: (  45,  45,  64)

     Smooth grid:    11561 G-vectors     FFT dimensions: (  27,  27,  48)

     Estimated max dynamical RAM per process >      15.88 MB

     Estimated total dynamical RAM >     289.09 MB

     Check: negative core charge=   -0.000008

     Initial potential from superposition of free atoms

     starting charge      21.9956, renormalised to      22.0000
     Starting wfcs are   20 randomized atomic wfcs
     Checking if some PAW data can be deallocated... 

     total cpu time spent up to now is       23.7 secs

     Self-consistent Calculation

     iteration #  1     ecut=    40.00 Ry     beta= 0.70
     Davidson diagonalization with overlap
     ethr =  1.00E-02,  avg # of iterations =  3.2

     Threshold (ethr) on eigenvalues was too large:
     Diagonalizing with lowered threshold

     Davidson diagonalization with overlap
     ethr =  1.82E-05,  avg # of iterations =  9.1

     total cpu time spent up to now is       64.4 secs

     total energy              =    -306.85534696 Ry
     estimated scf accuracy    <       0.02203504 Ry

     iteration #  2     ecut=    40.00 Ry     beta= 0.70
     Davidson diagonalization with overlap
     ethr =  1.00E-04,  avg # of iterations =  4.3

     total cpu time spent up to now is       84.7 secs

     total energy              =    -306.86080102 Ry
     estimated scf accuracy    <       0.00440774 Ry

     iteration #  3     ecut=    40.00 Ry     beta= 0.70
     Davidson diagonalization with overlap
     ethr =  2.00E-05,  avg # of iterations =  3.8

     total cpu time spent up to now is      103.3 secs

     total energy              =    -306.86197861 Ry
     estimated scf accuracy    <       0.00006421 Ry

     iteration #  4     ecut=    40.00 Ry     beta= 0.70
     Davidson diagonalization with overlap
     ethr =  2.92E-07,  avg # of iterations =  7.1

     total cpu time spent up to now is      119.2 secs

     total energy              =    -306.86203632 Ry
     estimated scf accuracy    <       0.00000262 Ry

     iteration #  5     ecut=    40.00 Ry     beta= 0.70
     Davidson diagonalization with overlap
     ethr =  1.19E-08,  avg # of iterations =  7.0

     total cpu time spent up to now is      133.5 secs

     total energy              =    -306.86203827 Ry
     estimated scf accuracy    <       0.00000014 Ry

     iteration #  6     ecut=    40.00 Ry     beta= 0.70
     Davidson diagonalization with overlap
     ethr =  6.25E-10,  avg # of iterations =  6.6

     total cpu time spent up to now is      147.5 secs

     End of self-consistent calculation

          k = 0.0000 0.0000 0.0000 (  1449 PWs)   bands (ev):

   -40.1584 -40.0943 -19.2374 -18.9042 -18.9042 -18.8457 -18.8457 -18.8285
     3.7526   7.1490   9.3043  10.3674  10.3674  10.4898  10.7832

          k = 0.0000 0.0000 0.0784 (  1436 PWs)   bands (ev):

   -40.1559 -40.0967 -19.2221 -18.9018 -18.9018 -18.8478 -18.8478 -18.8443
     3.8538   6.9944   9.2756  10.3286  10.3286  10.4261  10.7272

          k = 0.0000 0.0000 0.1568 (  1460 PWs)   bands (ev):

   -40.1491 -40.1038 -19.1794 -18.8956 -18.8956 -18.8903 -18.8542 -18.8542
     4.1510   6.5456   9.2852  10.2321  10.2644  10.2645  10.5890

          k = 0.0000 0.0000 0.2353 (  1460 PWs)   bands (ev):

   -40.1387 -40.1142 -19.1141 -18.9576 -18.8862 -18.8862 -18.8637 -18.8637
     4.6230   5.9085   9.4286   9.9708  10.2523  10.2524  10.4354

          k = 0.0000 0.0000-0.3137 (  1448 PWs)   bands (ev):

   -40.1264 -40.1264 -19.0364 -19.0364 -18.8747 -18.8747 -18.8747 -18.8747
     5.2310   5.2310   9.6777   9.6777  10.3160  10.3160  10.3161

          k = 0.0000 0.0962 0.0000 (  1431 PWs)   bands (ev):

   -40.1550 -40.0929 -19.2284 -18.9221 -18.9101 -18.8645 -18.8482 -18.8321
     3.9039   7.2796   9.1806  10.1037  10.4855  10.6567  10.7183

          k = 0.0000 0.0962 0.0784 (  1438 PWs)   bands (ev):

   -40.1527 -40.0953 -19.2143 -18.9195 -18.9077 -18.8726 -18.8506 -18.8418
     4.0037   7.1237   9.1548  10.1005  10.4292  10.5321  10.6554

          k = 0.0000 0.0962 0.1568 (  1451 PWs)   bands (ev):

   -40.1460 -40.1021 -19.1740 -18.9125 -18.9061 -18.9011 -18.8582 -18.8573
     4.2967   6.6730   9.1795  10.1047  10.2556  10.3546  10.5512

          k = 0.0000 0.0962 0.2353 (  1453 PWs)   bands (ev):

   -40.1360 -40.1122 -19.1129 -18.9672 -18.9003 -18.8910 -18.8726 -18.8673
     4.7626   6.0363   9.3430   9.9362  10.1529  10.3405  10.3983

          k = 0.0000 0.0962-0.3137 (  1456 PWs)   bands (ev):

   -40.1241 -40.1241 -19.0401 -19.0401 -18.8868 -18.8868 -18.8793 -18.8793
     5.3638   5.3638   9.6156   9.6157  10.2515  10.2523  10.3975

          k = 0.0000 0.1925 0.0000 (  1439 PWs)   bands (ev):

   -40.1458 -40.0893 -19.2032 -18.9723 -18.9262 -18.9157 -18.8557 -18.8432
     4.3434   7.6282   8.8972   9.6880  10.4281  10.8035  10.8486

          k = 0.0000 0.1925 0.0784 (  1443 PWs)   bands (ev):

   -40.1437 -40.0915 -19.1923 -18.9681 -18.9252 -18.9234 -18.8584 -18.8498
     4.4384   7.4723   8.8822   9.7071  10.4201  10.5689  10.6568

          k = 0.0000 0.1925 0.1568 (  1446 PWs)   bands (ev):

   -40.1376 -40.0977 -19.1608 -18.9616 -18.9485 -18.9157 -18.8662 -18.8660
     4.7175   7.0183   8.9457   9.7644  10.1971  10.4260  10.5658

          k = 0.0000 0.1925 0.2353 (  1443 PWs)   bands (ev):

   -40.1285 -40.1069 -19.1133 -19.0019 -18.9348 -18.9043 -18.8882 -18.8774
     5.1623   6.3900   9.1503   9.7553   9.9766  10.2786  10.5590

          k = 0.0000 0.1925-0.3137 (  1448 PWs)   bands (ev):

   -40.1177 -40.1177 -19.0573 -19.0573 -18.9121 -18.9121 -18.8910 -18.8910
     5.7389   5.7389   9.4495   9.4495  10.0962  10.0962  10.6288

          k = 0.0000 0.2887 0.0000 (  1439 PWs)   bands (ev):

   -40.1328 -40.0850 -19.1653 -19.0415 -18.9835 -18.9469 -18.8667 -18.8622
     5.0256   8.0385   8.5918   9.2616  10.2055  10.4847  10.5960

          k = 0.0000 0.2887 0.0784 (  1443 PWs)   bands (ev):

   -40.1309 -40.0869 -19.1621 -19.0328 -18.9926 -18.9441 -18.8698 -18.8654
     5.1110   7.8858   8.6038   9.2907  10.1815  10.4275  10.6092

          k = 0.0000 0.2887 0.1568 (  1437 PWs)   bands (ev):

   -40.1257 -40.0920 -19.1504 -19.0284 -18.9976 -18.9354 -18.8785 -18.8770
     5.3617   7.4487   8.7234   9.3701  10.0358  10.3145  10.6593

          k = 0.0000 0.2887 0.2353 (  1449 PWs)   bands (ev):

   -40.1181 -40.0998 -19.1284 -19.0609 -18.9661 -18.9225 -18.8991 -18.8917
     5.7614   6.8690   8.9518   9.4070   9.8728  10.1419  10.7560

          k = 0.0000 0.2887-0.3137 (  1450 PWs)   bands (ev):

   -40.1089 -40.1089 -19.0971 -19.0971 -18.9302 -18.9302 -18.9071 -18.9071
     6.2800   6.2800   9.2247   9.2247   9.9449   9.9449  10.9107

          k = 0.0000 0.3849 0.0000 (  1445 PWs)   bands (ev):

   -40.1186 -40.0817 -19.1211 -19.1114 -19.0492 -18.9675 -18.8875 -18.8782
     5.8663   8.2007   8.3429   8.9219  10.2297  10.2342  10.3807

          k = 0.0000 0.3849 0.0784 (  1437 PWs)   bands (ev):

   -40.1172 -40.0831 -19.1476 -19.0803 -19.0535 -18.9641 -18.8873 -18.8816
     5.9335   8.0549   8.4162   8.9638  10.0841  10.3154  10.4325

          k = 0.0000 0.3849 0.1568 (  1443 PWs)   bands (ev):

   -40.1132 -40.0871 -19.1643 -19.0929 -19.0202 -18.9547 -18.8915 -18.8914
     6.1304   7.7184   8.5758   9.0525   9.9395  10.2636  10.5783

          k = 0.0000 0.3849 0.2353 (  1444 PWs)   bands (ev):

   -40.1072 -40.0931 -19.1648 -19.1233 -18.9742 -18.9403 -18.9065 -18.9060
     6.4420   7.2875   8.7999   9.1078   9.8509  10.0944  10.8056

          k = 0.0000 0.3849-0.3137 (  1440 PWs)   bands (ev):

   -40.1001 -40.1001 -19.1498 -19.1498 -18.9345 -18.9345 -18.9232 -18.9232
     6.8417   6.8417   9.0166   9.0166   9.9120   9.9120  11.1028

          k = 0.0000 0.4811 0.0000 (  1441 PWs)   bands (ev):

   -40.1068 -40.0806 -19.1625 -19.0964 -19.0798 -18.9823 -18.9144 -18.8867
     6.7198   8.0337   8.1876   8.6712  10.0652  10.2407  10.4456

          k = 0.0000 0.4811 0.0784 (  1440 PWs)   bands (ev):

   -40.1058 -40.0816 -19.1766 -19.1100 -19.0551 -18.9788 -18.9110 -18.8904
     6.7522   7.9350   8.2878   8.7019  10.0697  10.3034  10.3985

          k = 0.0000 0.4811 0.1568 (  1448 PWs)   bands (ev):

   -40.1030 -40.0845 -19.1954 -19.1386 -19.0111 -18.9686 -18.9074 -18.9011
     6.8498   7.7370   8.4809   8.7990  10.0543  10.2702  10.4829

          k = 0.0000 0.4811 0.2353 (  1449 PWs)   bands (ev):

   -40.0988 -40.0887 -19.2017 -19.1692 -18.9676 -18.9532 -18.9167 -18.9134
     7.0130   7.4879   8.7134   8.9095   9.9959  10.1180  10.7755

          k = 0.0000 0.4811-0.3137 (  1448 PWs)   bands (ev):

   -40.0938 -40.0938 -19.1923 -19.1923 -18.9351 -18.9351 -18.9335 -18.9335
     7.2334   7.2334   8.8945   8.8945   9.9996   9.9996  11.1621

          k = 0.0000-0.5774 0.0000 (  1432 PWs)   bands (ev):

   -40.1018 -40.0809 -19.1812 -19.1131 -19.0604 -18.9877 -18.9285 -18.8901
     7.2374   7.7954   8.1370   8.5559  10.0053  10.1890  10.5426

          k = 0.0000-0.5774 0.0784 (  1440 PWs)   bands (ev):

   -40.1010 -40.0817 -19.1925 -19.1259 -19.0416 -18.9841 -18.9233 -18.8939
     7.2177   7.7705   8.2456   8.5532  10.0570  10.2560  10.4702

          k = 0.0000-0.5774 0.1568 (  1438 PWs)   bands (ev):

   -40.0987 -40.0840 -19.2096 -19.1550 -19.0022 -18.9737 -18.9154 -18.9046
     7.2043   7.6768   8.5081   8.6083  10.1501  10.2893  10.4509

          k = 0.0000-0.5774 0.2353 (  1456 PWs)   bands (ev):

   -40.0954 -40.0875 -19.2166 -19.1860 -18.9630 -18.9580 -18.9204 -18.9170
     7.2478   7.5198   8.7453   8.7742  10.1047  10.1533  10.7585

          k = 0.0000-0.5774-0.3137 (  1456 PWs)   bands (ev):

   -40.0914 -40.0914 -19.2084 -19.2084 -18.9393 -18.9393 -18.9328 -18.9328
     7.3604   7.3604   8.8619   8.8619  10.0713  10.0713  11.1698

          k = 0.0833 0.1443 0.0000 (  1437 PWs)   bands (ev):

   -40.1488 -40.0904 -19.2115 -18.9529 -18.9290 -18.8926 -18.8557 -18.8396
     4.1996   7.5213   8.9814   9.8016  10.5090  10.7143  10.7920

          k = 0.0833 0.1443 0.0784 (  1434 PWs)   bands (ev):

   -40.1465 -40.0927 -19.1993 -18.9491 -18.9284 -18.9005 -18.8582 -18.8462
     4.2963   7.3652   8.9630   9.8187  10.5188  10.5416  10.6090

          k = 0.0833 0.1443 0.1568 (  1447 PWs)   bands (ev):

   -40.1403 -40.0990 -19.1646 -18.9423 -18.9387 -18.9106 -18.8656 -18.8623
     4.5803   6.9109   9.0144   9.8674  10.2224  10.4554  10.5153

          k = 0.0833 0.1443 0.2353 (  1449 PWs)   bands (ev):

   -40.1309 -40.1085 -19.1123 -18.9895 -18.9230 -18.9038 -18.8808 -18.8763
     5.0327   6.2781   9.2073   9.8319  10.0103  10.3059  10.5019

          k = 0.0833 0.1443-0.3137 (  1454 PWs)   bands (ev):

   -40.1197 -40.1197 -19.0505 -19.0505 -18.9054 -18.9054 -18.8875 -18.8875
     5.6184   5.6184   9.5032   9.5032  10.1369  10.1371  10.5569

          k = 0.0833 0.2406 0.0000 (  1436 PWs)   bands (ev):

   -40.1376 -40.0865 -19.1798 -19.0077 -18.9740 -18.9267 -18.8686 -18.8546
     4.7625   7.9194   8.7056   9.3894  10.2773  10.4853  10.7841

          k = 0.0833 0.2406 0.0784 (  1441 PWs)   bands (ev):

   -40.1357 -40.0885 -19.1726 -19.0018 -18.9780 -18.9299 -18.8718 -18.8580
     4.8522   7.7648   8.7034   9.4168  10.2865  10.4062  10.7053

          k = 0.0833 0.2406 0.1568 (  1446 PWs)   bands (ev):

   -40.1302 -40.0940 -19.1518 -19.0026 -18.9788 -18.9306 -18.8805 -18.8692
     5.1158   7.3122   8.7995   9.4919  10.1103  10.3193  10.6546

          k = 0.0833 0.2406 0.2353 (  1450 PWs)   bands (ev):

   -40.1219 -40.1024 -19.1191 -19.0368 -18.9541 -18.9240 -18.8937 -18.8869
     5.5362   6.7032   9.0245   9.5363   9.8916  10.1591  10.7057

          k = 0.0833 0.2406-0.3137 (  1450 PWs)   bands (ev):

   -40.1121 -40.1121 -19.0787 -19.0787 -18.9279 -18.9279 -18.9009 -18.9009
     6.0824   6.0824   9.3179   9.3180   9.9639   9.9641  10.8114

          k = 0.0833 0.3368 0.0000 (  1445 PWs)   bands (ev):

   -40.1240 -40.0827 -19.1384 -19.0761 -19.0288 -18.9583 -18.8824 -18.8771
     5.5312   8.2392   8.4520   9.0078  10.1699  10.2236  10.5359

          k = 0.0833 0.3368 0.0784 (  1446 PWs)   bands (ev):

   -40.1224 -40.0843 -19.1454 -19.0623 -19.0322 -18.9582 -18.8873 -18.8759
     5.6078   8.0875   8.4951   9.0460  10.0812  10.2895  10.5198

          k = 0.0833 0.3368 0.1568 (  1445 PWs)   bands (ev):

   -40.1179 -40.0888 -19.1509 -19.0677 -19.0119 -18.9534 -18.8979 -18.8797
     5.8327   7.6880   8.6446   9.1366   9.9407  10.2376  10.5904

          k = 0.0833 0.3368 0.2353 (  1441 PWs)   bands (ev):

   -40.1112 -40.0955 -19.1441 -19.0963 -18.9737 -18.9425 -18.9117 -18.8933
     6.1902   7.1745   8.8721   9.2102   9.8054  10.0457  10.7820

          k = 0.0833 0.3368-0.3137 (  1436 PWs)   bands (ev):

   -40.1033 -40.1033 -19.1245 -19.1245 -18.9438 -18.9438 -18.9124 -18.9124
     6.6523   6.6523   9.1097   9.1097   9.8482   9.8482  11.0216

          k = 0.0833 0.4330 0.0000 (  1446 PWs)   bands (ev):

   -40.1108 -40.0808 -19.1363 -19.0944 -19.0767 -18.9828 -18.9044 -18.8945
     6.3966   8.2120   8.2696   8.7420  10.0561  10.3005  10.3404

          k = 0.0833 0.4330 0.0784 (  1449 PWs)   bands (ev):

   -40.1097 -40.0819 -19.1554 -19.0947 -19.0591 -18.9803 -18.9058 -18.8938
     6.4491   8.0777   8.3645   8.7931  10.0025  10.2801  10.3868

          k = 0.0833 0.4330 0.1568 (  1445 PWs)   bands (ev):

   -40.1064 -40.0852 -19.1753 -19.1188 -19.0174 -18.9700 -18.9149 -18.8923
     6.6029   7.8224   8.5337   8.9061   9.8997  10.1732  10.5436

          k = 0.0833 0.4330 0.2353 (  1442 PWs)   bands (ev):

   -40.1015 -40.0900 -19.1808 -19.1478 -18.9810 -18.9517 -18.9278 -18.8992
     6.8457   7.4973   8.7590   9.0012   9.8119   9.9849  10.7968

          k = 0.0833 0.4330-0.3137 (  1434 PWs)   bands (ev):

   -40.0957 -40.0957 -19.1706 -19.1706 -18.9561 -18.9561 -18.9172 -18.9172
     7.1556   7.1556   8.9585   8.9585   9.8303   9.8303  11.1237

          k = 0.0833 0.5292 0.0000 (  1438 PWs)   bands (ev):

   -40.1019 -40.0809 -19.1710 -19.1043 -19.0608 -18.9962 -18.9282 -18.9015
     7.1584   7.9586   8.1767   8.5546   9.9894  10.1439  10.5396

          k = 0.0833 0.5292 0.0784 (  1442 PWs)   bands (ev):

   -40.1011 -40.0817 -19.1823 -19.1175 -19.0436 -18.9907 -18.9254 -18.9026
     7.1637   7.9060   8.2790   8.5767  10.0029  10.1514  10.5271

          k = 0.0833 0.5292 0.1568 (  1439 PWs)   bands (ev):

   -40.0988 -40.0839 -19.1994 -19.1465 -19.0126 -18.9725 -18.9284 -18.9018
     7.1969   7.7796   8.4982   8.6841  10.0019  10.0874  10.6020

          k = 0.0833 0.5292 0.2353 (  1444 PWs)   bands (ev):

   -40.0954 -40.0874 -19.2066 -19.1769 -18.9864 -18.9478 -18.9394 -18.9039
     7.2820   7.6030   8.7379   8.8574   9.8970   9.9639  10.8469

          k = 0.0833 0.5292-0.3137 (  1450 PWs)   bands (ev):

   -40.0914 -40.0914 -19.1988 -19.1988 -18.9641 -18.9641 -18.9178 -18.9178
     7.4235   7.4235   8.9039   8.9039   9.8572   9.8572  11.1978

          k = 0.1667 0.2887 0.0000 (  1434 PWs)   bands (ev):

   -40.1258 -40.0831 -19.1444 -19.0458 -19.0383 -18.9468 -18.8920 -18.8736
     5.4173   8.2759   8.5068   9.0155  10.1640  10.1789  10.6289

          k = 0.1667 0.2887 0.0784 (  1445 PWs)   bands (ev):

   -40.1242 -40.0848 -19.1464 -19.0425 -19.0327 -18.9521 -18.8952 -18.8729
     5.4971   8.1185   8.5376   9.0478  10.1308  10.2107  10.5709

          k = 0.1667 0.2887 0.1568 (  1444 PWs)   bands (ev):

   -40.1196 -40.0895 -19.1454 -19.0577 -19.0016 -18.9577 -18.9033 -18.8763
     5.7316   7.6888   8.6804   9.1412   9.9837  10.2009  10.5613

          k = 0.1667 0.2887 0.2353 (  1444 PWs)   bands (ev):

   -40.1127 -40.0964 -19.1343 -19.0842 -18.9672 -18.9547 -18.9127 -18.8894
     6.1051   7.1411   8.9092   9.2396   9.7990  10.0038  10.7405

          k = 0.1667 0.2887-0.3137 (  1448 PWs)   bands (ev):

   -40.1046 -40.1046 -19.1125 -19.1125 -18.9500 -18.9500 -18.9089 -18.9089
     6.5898   6.5898   9.1552   9.1552   9.8037   9.8037  10.9614

          k = 0.1667 0.3849 0.0000 (  1449 PWs)   bands (ev):

   -40.1130 -40.0809 -19.1024 -19.1019 -19.0729 -18.9795 -18.9146 -18.8991
     6.2299   8.3553   8.4316   8.7119   9.9666  10.2475  10.3793

          k = 0.1667 0.3849 0.0784 (  1440 PWs)   bands (ev):

   -40.1117 -40.0821 -19.1321 -19.0927 -19.0488 -18.9840 -18.9187 -18.8934
     6.2934   8.2361   8.4918   8.7585   9.9317  10.2714  10.3307

          k = 0.1667 0.3849 0.1568 (  1441 PWs)   bands (ev):

   -40.1083 -40.0856 -19.1525 -19.1067 -19.0104 -18.9850 -18.9273 -18.8877
     6.4790   7.9458   8.6373   8.8675   9.8362  10.0916  10.4576

          k = 0.1667 0.3849 0.2353 (  1439 PWs)   bands (ev):

   -40.1030 -40.0908 -19.1581 -19.1289 -18.9897 -18.9709 -18.9293 -18.8926
     6.7720   7.5570   8.8396   8.9932   9.7077   9.8480  10.6944

          k = 0.1667 0.3849-0.3137 (  1440 PWs)   bands (ev):

   -40.0969 -40.0969 -19.1489 -19.1489 -18.9759 -18.9759 -18.9100 -18.9100
     7.1454   7.1454   9.0081   9.0081   9.6745   9.6745  11.0056

          k = 0.1667 0.4811 0.0000 (  1441 PWs)   bands (ev):

   -40.1019 -40.0808 -19.1447 -19.0891 -19.0615 -19.0110 -18.9297 -18.9275
     7.0584   8.2575   8.2699   8.5439   9.8838  10.1275  10.5075

          k = 0.1667 0.4811 0.0784 (  1439 PWs)   bands (ev):

   -40.1011 -40.0816 -19.1552 -19.1056 -19.0437 -19.0055 -18.9387 -18.9146
     7.0942   8.1573   8.3605   8.6160   9.8558  10.0630  10.5278

          k = 0.1667 0.4811 0.1568 (  1442 PWs)   bands (ev):

   -40.0989 -40.0839 -19.1729 -19.1311 -19.0297 -18.9807 -18.9474 -18.9010
     7.1987   7.9985   8.5224   8.7762   9.7635   9.8894  10.6162

          k = 0.1667 0.4811 0.2353 (  1441 PWs)   bands (ev):

   -40.0954 -40.0873 -19.1817 -19.1575 -19.0150 -18.9784 -18.9322 -18.8975
     7.3638   7.7952   8.7513   8.9444   9.6334   9.6549  10.8065

          k = 0.1667 0.4811-0.3137 (  1444 PWs)   bands (ev):

   -40.0914 -40.0914 -19.1762 -19.1762 -18.9963 -18.9963 -18.9085 -18.9085
     7.5720   7.5720   8.9591   8.9591   9.5387   9.5387  11.0935

          k = 0.1667 0.5774 0.0000 (  1432 PWs)   bands (ev):

   -40.0970 -40.0817 -19.1601 -19.0934 -19.0408 -19.0244 -18.9437 -18.9350
     7.5650   8.0384   8.2427   8.4486   9.9253   9.9648  10.6381

          k = 0.1667 0.5774 0.0784 (  1438 PWs)   bands (ev):

   -40.0964 -40.0823 -19.1685 -19.1071 -19.0462 -19.0009 -18.9506 -18.9241
     7.5572   8.0251   8.3341   8.4810   9.8880   9.9258  10.6498

          k = 0.1667 0.5774 0.1568 (  1439 PWs)   bands (ev):

   -40.0948 -40.0839 -19.1838 -19.1370 -19.0403 -18.9640 -18.9637 -18.9078
     7.5652   7.9631   8.5639   8.6035   9.7789   9.7946  10.7270

          k = 0.1667 0.5774 0.2353 (  1449 PWs)   bands (ev):

   -40.0923 -40.0864 -19.1919 -19.1667 -19.0246 -18.9827 -18.9301 -18.9005
     7.6200   7.8496   8.8100   8.8449   9.5694   9.6045  10.9086

          k = 0.1667 0.5774-0.3137 (  1444 PWs)   bands (ev):

   -40.0893 -40.0893 -19.1864 -19.1864 -19.0040 -19.0040 -18.9075 -18.9075
     7.7230   7.7230   8.9879   8.9879   9.4457   9.4457  11.1857

          k = 0.2500 0.4330 0.0000 (  1438 PWs)   bands (ev):

   -40.1020 -40.0807 -19.1220 -19.0922 -19.0617 -19.0100 -18.9506 -18.9274
     7.0218   8.3241   8.4548   8.4953   9.8096  10.1334  10.4728

          k = 0.2500 0.4330 0.0784 (  1445 PWs)   bands (ev):

   -40.1012 -40.0816 -19.1240 -19.1204 -19.0297 -19.0204 -18.9530 -18.9167
     7.0691   8.2600   8.4906   8.5705   9.7906  10.0294  10.4829

          k = 0.2500 0.4330 0.1568 (  1446 PWs)   bands (ev):

   -40.0989 -40.0839 -19.1488 -19.1333 -19.0315 -18.9967 -18.9524 -18.9011
     7.2050   8.1205   8.6001   8.7288   9.7220   9.7836  10.5434

          k = 0.2500 0.4330 0.2353 (  1430 PWs)   bands (ev):

   -40.0954 -40.0873 -19.1631 -19.1493 -19.0275 -18.9975 -18.9291 -18.8956
     7.4133   7.9155   8.7708   8.9059   9.5304   9.5872  10.7099

          k = 0.2500 0.4330-0.3137 (  1438 PWs)   bands (ev):

   -40.0914 -40.0914 -19.1624 -19.1624 -19.0133 -19.0133 -18.9056 -18.9056
     7.6641   7.6641   8.9381   8.9381   9.4461   9.4461  10.9980

          k = 0.2500 0.5292 0.0000 (  1427 PWs)   bands (ev):

   -40.0936 -40.0827 -19.1370 -19.0811 -19.0448 -19.0256 -18.9732 -18.9563
     7.7168   8.2701   8.3260   8.3892   9.7821   9.9072  10.7015

          k = 0.2500 0.5292 0.0784 (  1431 PWs)   bands (ev):

   -40.0932 -40.0831 -19.1401 -19.0999 -19.0603 -19.0003 -18.9775 -18.9398
     7.7454   8.2430   8.3571   8.4783   9.7404   9.8126  10.7049

          k = 0.2500 0.5292 0.1568 (  1432 PWs)   bands (ev):

   -40.0920 -40.0843 -19.1525 -19.1269 -19.0699 -18.9995 -18.9526 -18.9156
     7.8245   8.1996   8.4804   8.6611   9.5619   9.6264  10.7413

          k = 0.2500 0.5292 0.2353 (  1433 PWs)   bands (ev):

   -40.0902 -40.0860 -19.1649 -19.1510 -19.0599 -19.0182 -18.9210 -18.9013
     7.9345   8.1397   8.6842   8.8985   9.2609   9.4209  10.8587

          k = 0.2500 0.5292-0.3137 (  1446 PWs)   bands (ev):

   -40.0882 -40.0882 -19.1652 -19.1652 -19.0402 -19.0402 -18.9030 -18.9030
     8.0478   8.0478   8.9484   8.9484   9.1681   9.1681  11.0884

          k = 0.3333 0.5774 0.0000 (  1434 PWs)   bands (ev):

   -40.0870 -40.0870 -19.1276 -19.0662 -19.0662 -18.9991 -18.9898 -18.9898
     8.1685   8.1685   8.2713   8.3619   9.7743   9.7744  10.7952

          k = 0.3333 0.5774 0.0784 (  1428 PWs)   bands (ev):

   -40.0870 -40.0870 -19.1227 -19.0877 -19.0877 -19.0040 -18.9680 -18.9680
     8.2146   8.2146   8.2903   8.3816   9.6985   9.6985  10.7965

          k = 0.3333 0.5774 0.1568 (  1431 PWs)   bands (ev):

   -40.0870 -40.0870 -19.1209 -19.1209 -19.1089 -19.0181 -18.9342 -18.9342
     8.3405   8.3452   8.3452   8.4240   9.4983   9.4983  10.8112

          k = 0.3333 0.5774 0.2353 (  1437 PWs)   bands (ev):

   -40.0870 -40.0870 -19.1449 -19.1449 -19.0883 -19.0391 -18.9098 -18.9098
     8.4029   8.4555   8.5340   8.5340   9.2448   9.2448  10.8993

          k = 0.3333 0.5774-0.3137 (  1428 PWs)   bands (ev):

   -40.0869 -40.0869 -19.1534 -19.1534 -19.0636 -19.0636 -18.9009 -18.9009
     8.4494   8.4494   8.6662   8.6662   9.0891   9.0891  11.1135

     the Fermi energy is     8.8268 ev

!    total energy              =    -306.86203838 Ry
     total all-electron energy =     -3050.002809 Ry
     estimated scf accuracy    <          3.5E-10 Ry
     smearing contrib. (-TS)   =      -0.00103546 Ry
     internal energy E=F+TS    =    -306.86100292 Ry

     The total energy is F=E-TS. E is the sum of the following terms:
     one-electron contribution =     -74.36243910 Ry
     hartree contribution      =      42.25298046 Ry
     xc contribution           =     -34.52432342 Ry
     ewald contribution        =    -126.46581261 Ry
     one-center paw contrib.   =    -113.76140824 Ry

     convergence has been achieved in   6 iterations

     Forces acting on atoms (cartesian axes, Ry/au):

     atom    1 type  1   force =    -0.00000000    0.00000000    0.00000000
     atom    2 type  1   force =     0.00000000    0.00000000    0.00000000
     The non-local contrib.  to forces
     atom    1 type  1   force =    -0.00000000   -0.00000000    0.00000000
     atom    2 type  1   force =     0.00000000   -0.00000000    0.00000000
     The ionic contribution  to forces
     atom    1 type  1   force =     0.00000000   -0.00000000    0.00000000
     atom    2 type  1   force =    -0.00000000    0.00000000    0.00000000
     The local contribution  to forces
     atom    1 type  1   force =     0.00000000    0.00000000    0.00000000
     atom    2 type  1   force =    -0.00000000    0.00000000    0.00000000
     The core correction contribution to forces
     atom    1 type  1   force =     0.00000000    0.00000000    0.00000000
     atom    2 type  1   force =     0.00000000   -0.00000000    0.00000000
     The Hubbard contrib.    to forces
     atom    1 type  1   force =     0.00000000    0.00000000    0.00000000
     atom    2 type  1   force =     0.00000000    0.00000000    0.00000000
     The SCF correction term to forces
     atom    1 type  1   force =     0.00000000    0.00000000   -0.00000000
     atom    2 type  1   force =    -0.00000000    0.00000000   -0.00000000

     Total force =     0.000000     Total SCF correction =     0.000000


     Computing stress (Cartesian axis) and pressure

          total   stress  (Ry/bohr**3)                   (kbar)     P=      -71.20
  -0.00044291  -0.00000000   0.00000000          -65.15       -0.00        0.00
  -0.00000000  -0.00044291   0.00000000           -0.00      -65.15        0.00
   0.00000000   0.00000000  -0.00056629            0.00        0.00      -83.30


     BFGS Geometry Optimization
     Energy error            =      0.0E+00 Ry
     Gradient error          =      1.6E-27 Ry/Bohr
     Cell gradient error     =      8.3E+01 kbar

     number of scf cycles    =   1
     number of bfgs steps    =   0

     enthalpy           new  =    -306.8620383801 Ry

     new trust radius        =       0.0520185557 bohr
     new conv_thr            =       0.0000000100 Ry

     new unit-cell volume =    325.41848 a.u.^3 (    48.22204 Ang^3 )
     density =      3.07135 g/cm^3

CELL_PARAMETERS (alat=  6.25310370)
   0.988927237  -0.000000000   0.000000000
  -0.494463619   0.856436110   0.000000000
   0.000000000   0.000000000   1.571433527

ATOMIC_POSITIONS (crystal)
Sc           -0.0000000000        0.0000000000        0.0000000000
Sc            0.6666666667        0.3333333333        0.5000000000



     Writing config-only to output data dir sc_vcrelax.out/scandium.save/
     NEW-OLD atomic charge density approx. for the potential

     Check: negative core charge=   -0.000010
     extrapolated charge   21.18170, renormalised to   22.00000

     total cpu time spent up to now is      167.5 secs

     Self-consistent Calculation

     iteration #  1     ecut=    40.00 Ry     beta= 0.70
     Davidson diagonalization with overlap
     ethr =  1.00E-06,  avg # of iterations = 15.6

     total cpu time spent up to now is      207.9 secs

     total energy              =    -306.66981748 Ry
     estimated scf accuracy    <       0.14390384 Ry

     iteration #  2     ecut=    40.00 Ry     beta= 0.70
     Davidson diagonalization with overlap
     ethr =  6.54E-04,  avg # of iterations =  5.9

     total cpu time spent up to now is      230.9 secs

     total energy              =    -306.86907027 Ry
     estimated scf accuracy    <       0.27385479 Ry

     iteration #  3     ecut=    40.00 Ry     beta= 0.70
     Davidson diagonalization with overlap
     ethr =  6.54E-04,  avg # of iterations =  1.9

     total cpu time spent up to now is      259.7 secs

     total energy              =    -306.86867571 Ry
     estimated scf accuracy    <       0.07135685 Ry

     iteration #  4     ecut=    40.00 Ry     beta= 0.70
     Davidson diagonalization with overlap
     ethr =  3.24E-04,  avg # of iterations =  3.1

     total cpu time spent up to now is      290.3 secs

     total energy              =    -306.86842409 Ry
     estimated scf accuracy    <       0.03123068 Ry

     iteration #  5     ecut=    40.00 Ry     beta= 0.70
     Davidson diagonalization with overlap
     ethr =  1.42E-04,  avg # of iterations =  3.3

     total cpu time spent up to now is      329.1 secs

     total energy              =    -306.87726382 Ry
     estimated scf accuracy    <       0.01431425 Ry

     iteration #  6     ecut=    40.00 Ry     beta= 0.70
     Davidson diagonalization with overlap
     ethr =  6.51E-05,  avg # of iterations =  1.1

     total cpu time spent up to now is      361.6 secs

     total energy              =    -306.86992690 Ry
     estimated scf accuracy    <       0.02552701 Ry

     iteration #  7     ecut=    40.00 Ry     beta= 0.70
     Davidson diagonalization with overlap
     ethr =  6.51E-05,  avg # of iterations =  1.7

     total cpu time spent up to now is      400.2 secs

     total energy              =    -306.86895146 Ry
     estimated scf accuracy    <       0.01201445 Ry

     iteration #  8     ecut=    40.00 Ry     beta= 0.70
     Davidson diagonalization with overlap
     ethr =  5.46E-05,  avg # of iterations =  1.6

     total cpu time spent up to now is      456.5 secs

     total energy              =    -306.86559852 Ry
     estimated scf accuracy    <       0.00768118 Ry

     iteration #  9     ecut=    40.00 Ry     beta= 0.70
     Davidson diagonalization with overlap
     ethr =  3.49E-05,  avg # of iterations =  3.4

     total cpu time spent up to now is      512.6 secs

     total energy              =    -306.86682430 Ry
     estimated scf accuracy    <       0.00057429 Ry

     iteration # 10     ecut=    40.00 Ry     beta= 0.70
     Davidson diagonalization with overlap
     ethr =  2.61E-06,  avg # of iterations =  4.8

     total cpu time spent up to now is      562.7 secs

     total energy              =    -306.86684648 Ry
     estimated scf accuracy    <       0.00020099 Ry

     iteration # 11     ecut=    40.00 Ry     beta= 0.70
     Davidson diagonalization with overlap
     ethr =  9.14E-07,  avg # of iterations =  5.7

     total cpu time spent up to now is      624.1 secs

     total energy              =    -306.86743360 Ry
     estimated scf accuracy    <       0.00039805 Ry

     iteration # 12     ecut=    40.00 Ry     beta= 0.70
     Davidson diagonalization with overlap
     ethr =  9.14E-07,  avg # of iterations =  4.2

     total cpu time spent up to now is      683.1 secs

     total energy              =    -306.86683053 Ry
     estimated scf accuracy    <       0.00128261 Ry

     iteration # 13     ecut=    40.00 Ry     beta= 0.70
     Davidson diagonalization with overlap
     ethr =  9.14E-07,  avg # of iterations =  4.6

     total cpu time spent up to now is      739.4 secs

     total energy              =    -306.86697424 Ry
     estimated scf accuracy    <       0.00006107 Ry

     iteration # 14     ecut=    40.00 Ry     beta= 0.70
     Davidson diagonalization with overlap
     ethr =  2.78E-07,  avg # of iterations =  2.7

     total cpu time spent up to now is      793.1 secs

     total energy              =    -306.86699862 Ry
     estimated scf accuracy    <       0.00001350 Ry

     iteration # 15     ecut=    40.00 Ry     beta= 0.70
     Davidson diagonalization with overlap
     ethr =  6.14E-08,  avg # of iterations =  3.1

     total cpu time spent up to now is      836.5 secs

     total energy              =    -306.86696813 Ry
     estimated scf accuracy    <       0.00005226 Ry

     iteration # 16     ecut=    40.00 Ry     beta= 0.70
     Davidson diagonalization with overlap
     ethr =  6.14E-08,  avg # of iterations =  5.3

     total cpu time spent up to now is      870.4 secs

     total energy              =    -306.86698139 Ry
     estimated scf accuracy    <       0.00000112 Ry

     iteration # 17     ecut=    40.00 Ry     beta= 0.70
     Davidson diagonalization with overlap
     ethr =  5.09E-09,  avg # of iterations =  4.1

     total cpu time spent up to now is      897.5 secs

     total energy              =    -306.86698163 Ry
     estimated scf accuracy    <       0.00000177 Ry

     iteration # 18     ecut=    40.00 Ry     beta= 0.70
     Davidson diagonalization with overlap
     ethr =  5.09E-09,  avg # of iterations =  1.0

     total cpu time spent up to now is      918.8 secs

     total energy              =    -306.86698059 Ry
     estimated scf accuracy    <       0.00000166 Ry

     iteration # 19     ecut=    40.00 Ry     beta= 0.70
     Davidson diagonalization with overlap
     ethr =  5.09E-09,  avg # of iterations =  3.8

     total cpu time spent up to now is      950.1 secs

     total energy              =    -306.86698098 Ry
     estimated scf accuracy    <       0.00000002 Ry

     iteration # 20     ecut=    40.00 Ry     beta= 0.70
     Davidson diagonalization with overlap
     ethr =  1.09E-10,  avg # of iterations =  7.4

     total cpu time spent up to now is      972.3 secs

     total energy              =    -306.86698087 Ry
     estimated scf accuracy    <       0.00000040 Ry

     iteration # 21     ecut=    40.00 Ry     beta= 0.70
     Davidson diagonalization with overlap
     ethr =  1.09E-10,  avg # of iterations =  5.6

     total cpu time spent up to now is     1000.7 secs

     total energy              =    -306.86698091 Ry
     estimated scf accuracy    <       0.00000003 Ry

     iteration # 22     ecut=    40.00 Ry     beta= 0.70
     Davidson diagonalization with overlap
     ethr =  1.09E-10,  avg # of iterations =  6.5

     total cpu time spent up to now is     1031.7 secs

     total energy              =    -306.86698088 Ry
     estimated scf accuracy    <       0.00000025 Ry

     iteration # 23     ecut=    40.00 Ry     beta= 0.70
     Davidson diagonalization with overlap
     ethr =  1.09E-10,  avg # of iterations =  5.4

     total cpu time spent up to now is     1066.9 secs

     total energy              =    -306.86698090 Ry
     estimated scf accuracy    <       0.00000001 Ry

     iteration # 24     ecut=    40.00 Ry     beta= 0.70
     Davidson diagonalization with overlap
     ethr =  5.66E-11,  avg # of iterations =  3.8

     total cpu time spent up to now is     1106.6 secs

     End of self-consistent calculation

          k = 0.0000 0.0000 0.0000 (  1449 PWs)   bands (ev):

   -39.6426 -39.5667 -18.7558 -18.3762 -18.3762 -18.3097 -18.3097 -18.2900
     4.1011   7.5252   9.8152  10.8250  10.8250  10.9693  11.2633

          k = 0.0000 0.0000 0.0795 (  1436 PWs)   bands (ev):

   -39.6397 -39.5695 -18.7386 -18.3736 -18.3736 -18.3122 -18.3122 -18.3083
     4.2063   7.3816   9.7691  10.7813  10.7813  10.9015  11.2032

          k = 0.0000 0.0000 0.1591 (  1460 PWs)   bands (ev):

   -39.6316 -39.5779 -18.6898 -18.3665 -18.3665 -18.3605 -18.3194 -18.3194
     4.5143   6.9507   9.7484  10.7011  10.7129  10.7129  11.0562

          k = 0.0000 0.0000 0.2386 (  1460 PWs)   bands (ev):

   -39.6193 -39.5903 -18.6157 -18.4375 -18.3558 -18.3558 -18.3302 -18.3302
     5.0022   6.3161   9.8749  10.4261  10.6998  10.6998  10.8925

          k = 0.0000 0.0000-0.3182 (  1448 PWs)   bands (ev):

   -39.6047 -39.6047 -18.5272 -18.5272 -18.3429 -18.3429 -18.3429 -18.3429
     5.6271   5.6271  10.1242  10.1242  10.7654  10.7654  10.7654

          k = 0.0000 0.0973 0.0000 (  1431 PWs)   bands (ev):

   -39.6387 -39.5650 -18.7458 -18.3966 -18.3830 -18.3310 -18.3125 -18.2942
     4.2572   7.6588   9.6769  10.5486  10.9454  11.1367  11.2011

          k = 0.0000 0.0973 0.0795 (  1438 PWs)   bands (ev):

   -39.6359 -39.5679 -18.7297 -18.3936 -18.3803 -18.3403 -18.3152 -18.3052
     4.3607   7.5149   9.6334  10.5444  10.8850  11.0068  11.1308

          k = 0.0000 0.0973 0.1591 (  1451 PWs)   bands (ev):

   -39.6280 -39.5759 -18.6838 -18.3857 -18.3786 -18.3727 -18.3237 -18.3228
     4.6642   7.0820   9.6285  10.5488  10.7174  10.8054  11.0208

          k = 0.0000 0.0973 0.2386 (  1453 PWs)   bands (ev):

   -39.6161 -39.5879 -18.6143 -18.4485 -18.3717 -18.3613 -18.3399 -18.3343
     5.1454   6.4473   9.7781  10.3850  10.5981  10.7899  10.8590

          k = 0.0000 0.0973-0.3182 (  1456 PWs)   bands (ev):

   -39.6021 -39.6021 -18.5316 -18.5316 -18.3562 -18.3562 -18.3478 -18.3478
     5.7631   5.7631  10.0530  10.0530  10.7034  10.7040  10.8511

          k = 0.0000 0.1946 0.0000 (  1439 PWs)   bands (ev):

   -39.6280 -39.5610 -18.7171 -18.4531 -18.4012 -18.3885 -18.3207 -18.3070
     4.7096   8.0146   9.3607  10.1130  10.8978  11.2774  11.3132

          k = 0.0000 0.1946 0.0795 (  1443 PWs)   bands (ev):

   -39.6255 -39.5636 -18.7046 -18.4484 -18.3996 -18.3981 -18.3238 -18.3141
     4.8078   7.8727   9.3280  10.1330  10.8891  11.0396  11.1169

          k = 0.0000 0.1946 0.1591 (  1446 PWs)   bands (ev):

   -39.6182 -39.5709 -18.6688 -18.4414 -18.4260 -18.3893 -18.3325 -18.3324
     5.0961   7.4366   9.3664  10.1920  10.6527  10.8984  11.0212

          k = 0.0000 0.1946 0.2386 (  1443 PWs)   bands (ev):

   -39.6074 -39.5818 -18.6149 -18.4880 -18.4102 -18.3763 -18.3572 -18.3456
     5.5543   6.8083   9.5641  10.1818  10.4250  10.7416  11.0150

          k = 0.0000 0.1946-0.3182 (  1448 PWs)   bands (ev):

   -39.5946 -39.5946 -18.5512 -18.5512 -18.3844 -18.3844 -18.3610 -18.3610
     6.1457   6.1457   9.8695   9.8695  10.5484  10.5485  11.0904

          k = 0.0000 0.2919 0.0000 (  1439 PWs)   bands (ev):

   -39.6127 -39.5561 -18.6741 -18.5310 -18.4646 -18.4248 -18.3328 -18.3285
     5.4090   8.4259   9.0194   9.6725  10.6728  10.9544  11.0496

          k = 0.0000 0.2919 0.0795 (  1443 PWs)   bands (ev):

   -39.6105 -39.5583 -18.6702 -18.5212 -18.4752 -18.4214 -18.3363 -18.3320
     5.4966   8.2916   9.0144   9.7036  10.6416  10.8993  11.0636

          k = 0.0000 0.2919 0.1591 (  1437 PWs)   bands (ev):

   -39.6044 -39.5644 -18.6568 -18.5169 -18.4809 -18.4115 -18.3463 -18.3447
     5.7536   7.8701   9.1197   9.7854  10.4844  10.7873  11.1165

          k = 0.0000 0.2919 0.2386 (  1449 PWs)   bands (ev):

   -39.5953 -39.5737 -18.6317 -18.5543 -18.4451 -18.3966 -18.3693 -18.3614
     6.1625   7.2889   9.3513   9.8237  10.3173  10.6059  11.2205

          k = 0.0000 0.2919-0.3182 (  1450 PWs)   bands (ev):

   -39.5845 -39.5845 -18.5959 -18.5959 -18.4045 -18.4045 -18.3790 -18.3790
     6.6914   6.6914   9.6343   9.6343  10.3964  10.3964  11.3839

          k = 0.0000 0.3892 0.0000 (  1445 PWs)   bands (ev):

   -39.5961 -39.5524 -18.6236 -18.6096 -18.5382 -18.4479 -18.3574 -18.3454
     6.2648   8.5738   8.7401   9.3367  10.7038  10.7053  10.8251

          k = 0.0000 0.3892 0.0795 (  1437 PWs)   bands (ev):

   -39.5945 -39.5541 -18.6527 -18.5753 -18.5436 -18.4440 -18.3570 -18.3494
     6.3323   8.4452   8.8002   9.3797  10.5466  10.7939  10.8788

          k = 0.0000 0.3892 0.1591 (  1443 PWs)   bands (ev):

   -39.5897 -39.5589 -18.6715 -18.5892 -18.5066 -18.4331 -18.3612 -18.3606
     6.5299   8.1184   8.9623   9.4715  10.3933  10.7406  11.0322

          k = 0.0000 0.3892 0.2386 (  1444 PWs)   bands (ev):

   -39.5827 -39.5660 -18.6720 -18.6243 -18.4544 -18.4166 -18.3778 -18.3773
     6.8427   7.6897   9.1972   9.5274  10.3017  10.5621  11.2728

          k = 0.0000 0.3892-0.3182 (  1440 PWs)   bands (ev):

   -39.5743 -39.5743 -18.6547 -18.6547 -18.4094 -18.4094 -18.3970 -18.3970
     7.2435   7.2435   9.4273   9.4273  10.3684  10.3684  11.5853

          k = 0.0000 0.4865 0.0000 (  1441 PWs)   bands (ev):

   -39.5823 -39.5513 -18.6673 -18.5908 -18.5766 -18.4645 -18.3883 -18.3549
     7.1225   8.3973   8.5634   9.0964  10.5346  10.6781  10.9313

          k = 0.0000 0.4865 0.0795 (  1440 PWs)   bands (ev):

   -39.5811 -39.5525 -18.6840 -18.6071 -18.5476 -18.4604 -18.3841 -18.3592
     7.1510   8.3060   8.6662   9.1230  10.5432  10.7439  10.8813

          k = 0.0000 0.4865 0.1591 (  1448 PWs)   bands (ev):

   -39.5778 -39.5559 -18.7057 -18.6402 -18.4969 -18.4487 -18.3792 -18.3713
     7.2399   8.1143   8.8705   9.2190  10.5323  10.7498  10.9342

          k = 0.0000 0.4865 0.2386 (  1449 PWs)   bands (ev):

   -39.5728 -39.5609 -18.7130 -18.6756 -18.4472 -18.4310 -18.3892 -18.3855
     7.3948   7.8655   9.1163   9.3348  10.4687  10.5990  11.2429

          k = 0.0000 0.4865-0.3182 (  1448 PWs)   bands (ev):

   -39.5669 -39.5669 -18.7022 -18.7022 -18.4102 -18.4102 -18.4083 -18.4083
     7.6111   7.6111   9.3130   9.3130  10.4752  10.4752  11.6497

          k =-0.0000-0.5838 0.0000 (  1432 PWs)   bands (ev):

   -39.5765 -39.5517 -18.6884 -18.6096 -18.5545 -18.4705 -18.4045 -18.3586
     7.6336   8.1654   8.5043   8.9844  10.4749  10.6249  11.0335

          k =-0.0000-0.5838 0.0795 (  1440 PWs)   bands (ev):

   -39.5756 -39.5527 -18.7016 -18.6246 -18.5325 -18.4663 -18.3981 -18.3629
     7.6032   8.1447   8.6291   8.9722  10.5359  10.6949  10.9569

          k =-0.0000-0.5838 0.1591 (  1438 PWs)   bands (ev):

   -39.5729 -39.5553 -18.7216 -18.6585 -18.4871 -18.4544 -18.3884 -18.3752
     7.5742   8.0542   8.9189   9.0126  10.6448  10.7659  10.8997

          k =-0.0000-0.5838 0.2386 (  1456 PWs)   bands (ev):

   -39.5689 -39.5594 -18.7296 -18.6943 -18.4418 -18.4364 -18.3934 -18.3895
     7.6108   7.8919   9.1522   9.2035  10.5770  10.6545  11.2251

          k =-0.0000-0.5838-0.3182 (  1456 PWs)   bands (ev):

   -39.5642 -39.5642 -18.7201 -18.7201 -18.4150 -18.4150 -18.4073 -18.4073
     7.7251   7.7251   9.2837   9.2837  10.5586  10.5586  11.6586

          k = 0.0843 0.1460 0.0000 (  1437 PWs)   bands (ev):

   -39.6314 -39.5623 -18.7265 -18.4311 -18.4045 -18.3626 -18.3208 -18.3028
     4.5617   7.9059   9.4550  10.2311  10.9803  11.1846  11.2566

          k = 0.0843 0.1460 0.0795 (  1434 PWs)   bands (ev):

   -39.6288 -39.5649 -18.7126 -18.4269 -18.4038 -18.3718 -18.3237 -18.3102
     4.6618   7.7630   9.4183  10.2480  10.9915  11.0081  11.0714

          k = 0.0843 0.1460 0.1591 (  1447 PWs)   bands (ev):

   -39.6214 -39.5725 -18.6732 -18.4198 -18.4149 -18.3835 -18.3321 -18.3280
     4.9555   7.3268   9.4427  10.2980  10.6797  10.9238  10.9749

          k = 0.0843 0.1460 0.2386 (  1449 PWs)   bands (ev):

   -39.6102 -39.5837 -18.6137 -18.4739 -18.3970 -18.3757 -18.3490 -18.3443
     5.4220   6.6946   9.6268  10.2636  10.4579  10.7678  10.9582

          k = 0.0843 0.1460-0.3182 (  1454 PWs)   bands (ev):

   -39.5970 -39.5970 -18.5435 -18.5435 -18.3768 -18.3768 -18.3571 -18.3571
     6.0232   6.0232   9.9281   9.9281  10.5890  10.5890  11.0165

          k = 0.0843 0.2433 0.0000 (  1436 PWs)   bands (ev):

   -39.6184 -39.5578 -18.6905 -18.4929 -18.4548 -18.4012 -18.3351 -18.3200
     5.1399   8.3099   9.1465   9.8008  10.7440  10.9413  11.2531

          k = 0.0843 0.2433 0.0795 (  1441 PWs)   bands (ev):

   -39.6161 -39.5601 -18.6823 -18.4862 -18.4593 -18.4051 -18.3387 -18.3236
     5.2323   8.1720   9.1261   9.8297  10.7499  10.8681  11.1692

          k = 0.0843 0.2433 0.1591 (  1446 PWs)   bands (ev):

   -39.6096 -39.5667 -18.6585 -18.4878 -18.4598 -18.4061 -18.3487 -18.3358
     5.5035   7.7361   9.2030   9.9084  10.5594  10.7908  11.1142

          k = 0.0843 0.2433 0.2386 (  1450 PWs)   bands (ev):

   -39.5998 -39.5766 -18.6213 -18.5273 -18.4316 -18.3984 -18.3637 -18.3557
     5.9351   7.1252   9.4277   9.9544  10.3358  10.6203  11.1689

          k = 0.0843 0.2433-0.3182 (  1450 PWs)   bands (ev):

   -39.5882 -39.5882 -18.5753 -18.5753 -18.4020 -18.4020 -18.3720 -18.3720
     6.4939   6.4939   9.7295   9.7295  10.4134  10.4134  11.2809

          k = 0.0843 0.3406 0.0000 (  1445 PWs)   bands (ev):

   -39.6024 -39.5536 -18.6434 -18.5699 -18.5157 -18.4370 -18.3504 -18.3455
     5.9255   8.6249   8.8612   9.4138  10.6408  10.6759  10.9988

          k = 0.0843 0.3406 0.0795 (  1446 PWs)   bands (ev):

   -39.6005 -39.5555 -18.6510 -18.5545 -18.5197 -18.4370 -18.3561 -18.3438
     6.0035   8.4931   8.8879   9.4538  10.5352  10.7598  10.9779

          k = 0.0843 0.3406 0.1591 (  1445 PWs)   bands (ev):

   -39.5953 -39.5608 -18.6570 -18.5610 -18.4970 -18.4317 -18.3682 -18.3477
     6.2320   8.1038   9.0340   9.5486  10.3857  10.7092  11.0484

          k = 0.0843 0.3406 0.2386 (  1441 PWs)   bands (ev):

   -39.5874 -39.5687 -18.6491 -18.5940 -18.4538 -18.4192 -18.3840 -18.3628
     6.5949   7.5897   9.2697   9.6251  10.2461  10.5047  11.2492

          k = 0.0843 0.3406-0.3182 (  1436 PWs)   bands (ev):

   -39.5780 -39.5780 -18.6265 -18.6265 -18.4202 -18.4202 -18.3847 -18.3847
     7.0629   7.0629   9.5183   9.5183  10.2946  10.2946  11.5001

          k = 0.0843 0.4379 0.0000 (  1446 PWs)   bands (ev):

   -39.5870 -39.5514 -18.6378 -18.5933 -18.5690 -18.4648 -18.3768 -18.3637
     6.8017   8.5821   8.6535   9.1581  10.5099  10.7539  10.8216

          k = 0.0843 0.4379 0.0795 (  1449 PWs)   bands (ev):

   -39.5857 -39.5528 -18.6604 -18.5907 -18.5512 -18.4619 -18.3776 -18.3634
     6.8529   8.4597   8.7427   9.2097  10.4597  10.7420  10.8566

          k = 0.0843 0.4379 0.1591 (  1445 PWs)   bands (ev):

   -39.5818 -39.5567 -18.6834 -18.6182 -18.5038 -18.4502 -18.3872 -18.3619
     7.0033   8.2103   8.9194   9.3270  10.3555  10.6391  11.0074

          k = 0.0843 0.4379 0.2386 (  1442 PWs)   bands (ev):

   -39.5760 -39.5624 -18.6897 -18.6517 -18.4625 -18.4290 -18.4020 -18.3694
     7.2420   7.8877   9.1585   9.4261  10.2642  10.4459  11.2689

          k = 0.0843 0.4379-0.3182 (  1434 PWs)   bands (ev):

   -39.5692 -39.5692 -18.6780 -18.6780 -18.4342 -18.4342 -18.3897 -18.3897
     7.5484   7.5484   9.3745   9.3745  10.2839  10.2839  11.6107

          k = 0.0843 0.5352 0.0000 (  1438 PWs)   bands (ev):

   -39.5765 -39.5517 -18.6770 -18.5998 -18.5550 -18.4799 -18.4041 -18.3714
     7.5601   8.3297   8.5462   8.9785  10.4531  10.5841  11.0287

          k = 0.0843 0.5352 0.0795 (  1442 PWs)   bands (ev):

   -39.5756 -39.5526 -18.6901 -18.6153 -18.5347 -18.4737 -18.4002 -18.3729
     7.5581   8.2807   8.6596   8.9943  10.4721  10.5959  11.0107

          k = 0.0843 0.5352 0.1591 (  1439 PWs)   bands (ev):

   -39.5729 -39.5553 -18.7101 -18.6491 -18.4989 -18.4529 -18.4026 -18.3725
     7.5777   8.1585   8.8964   9.0986  10.4732  10.5480  11.0753

          k = 0.0843 0.5352 0.2386 (  1444 PWs)   bands (ev):

   -39.5689 -39.5594 -18.7184 -18.6842 -18.4688 -18.4245 -18.4149 -18.3747
     7.6539   7.9785   9.1464   9.2855  10.3507  10.4456  11.3256

          k = 0.0843 0.5352-0.3182 (  1450 PWs)   bands (ev):

   -39.5641 -39.5641 -18.7093 -18.7093 -18.4431 -18.4431 -18.3902 -18.3902
     7.7945   7.7945   9.3276   9.3276  10.3244  10.3244  11.6925

          k = 0.1685 0.2919 0.0000 (  1434 PWs)   bands (ev):

   -39.6046 -39.5540 -18.6502 -18.5354 -18.5273 -18.4238 -18.3613 -18.3415
     5.8102   8.6693   8.9217   9.4132  10.6245  10.6318  11.0973

          k = 0.1685 0.2919 0.0795 (  1445 PWs)   bands (ev):

   -39.6027 -39.5560 -18.6523 -18.5321 -18.5205 -18.4300 -18.3649 -18.3404
     5.8917   8.5335   8.9339   9.4477  10.5759  10.6807  11.0351

          k = 0.1685 0.2919 0.1591 (  1444 PWs)   bands (ev):

   -39.5972 -39.5615 -18.6510 -18.5499 -18.4851 -18.4367 -18.3743 -18.3437
     6.1310   8.1129   9.0721   9.5459  10.4260  10.6690  11.0212

          k = 0.1685 0.2919 0.2386 (  1444 PWs)   bands (ev):

   -39.5891 -39.5697 -18.6382 -18.5805 -18.4461 -18.4331 -18.3850 -18.3583
     6.5116   7.5623   9.3083   9.6499  10.2367  10.4584  11.2068

          k = 0.1685 0.2919-0.3182 (  1448 PWs)   bands (ev):

   -39.5794 -39.5794 -18.6131 -18.6131 -18.4272 -18.4272 -18.3804 -18.3804
     7.0041   7.0041   9.5633   9.5633  10.2454  10.2454  11.4391

          k = 0.1685 0.3892 0.0000 (  1449 PWs)   bands (ev):

   -39.5896 -39.5516 -18.6023 -18.5988 -18.5655 -18.4606 -18.3864 -18.3707
     6.6372   8.7464   8.8183   9.1099  10.4073  10.7246  10.8433

          k = 0.1685 0.3892 0.0795 (  1440 PWs)   bands (ev):

   -39.5881 -39.5530 -18.6348 -18.5889 -18.5390 -18.4662 -18.3913 -18.3638
     6.7008   8.6313   8.8786   9.1589  10.3734  10.7453  10.7910

          k = 0.1685 0.3892 0.1591 (  1441 PWs)   bands (ev):

   -39.5840 -39.5571 -18.6581 -18.6049 -18.4956 -18.4673 -18.4012 -18.3567
     6.8867   8.3470   9.0303   9.2743  10.2773  10.5493  10.9236

          k = 0.1685 0.3892 0.2386 (  1439 PWs)   bands (ev):

   -39.5778 -39.5633 -18.6644 -18.6307 -18.4724 -18.4506 -18.4036 -18.3618
     7.1797   7.9624   9.2432   9.4071  10.1447  10.2934  11.1649

          k = 0.1685 0.3892-0.3182 (  1440 PWs)   bands (ev):

   -39.5706 -39.5706 -18.6537 -18.6537 -18.4565 -18.4565 -18.3815 -18.3815
     7.5526   7.5526   9.4223   9.4223  10.1107  10.1107  11.4878

          k = 0.1685 0.4865 0.0000 (  1441 PWs)   bands (ev):

   -39.5767 -39.5516 -18.6473 -18.5831 -18.5558 -18.4963 -18.4033 -18.4032
     7.4704   8.6345   8.6423   8.9553  10.3269  10.5828  10.9941

          k = 0.1685 0.4865 0.0795 (  1439 PWs)   bands (ev):

   -39.5757 -39.5526 -18.6596 -18.6027 -18.5343 -18.4904 -18.4140 -18.3876
     7.5031   8.5363   8.7384   9.0275  10.3020  10.5161  11.0110

          k = 0.1685 0.4865 0.1591 (  1442 PWs)   bands (ev):

   -39.5730 -39.5553 -18.6803 -18.6322 -18.5181 -18.4619 -18.4238 -18.3716
     7.6002   8.3813   8.9110   9.1957  10.2144  10.3350  11.0957

          k = 0.1685 0.4865 0.2386 (  1441 PWs)   bands (ev):

   -39.5689 -39.5593 -18.6905 -18.6626 -18.5011 -18.4590 -18.4067 -18.3673
     7.7571   8.1797   9.1564   9.3764  10.0781  10.0940  11.2881

          k = 0.1685 0.4865-0.3182 (  1444 PWs)   bands (ev):

   -39.5641 -39.5641 -18.6842 -18.6842 -18.4796 -18.4796 -18.3797 -18.3797
     7.9594   7.9594   9.3858   9.3858   9.9759   9.9759  11.5847

          k = 0.1685 0.5838 0.0000 (  1432 PWs)   bands (ev):

   -39.5708 -39.5527 -18.6647 -18.5876 -18.5322 -18.5116 -18.4218 -18.4092
     7.9686   8.4264   8.6081   8.8612  10.3876  10.3988  11.1291

          k = 0.1685 0.5838 0.0795 (  1438 PWs)   bands (ev):

   -39.5702 -39.5534 -18.6745 -18.6038 -18.5374 -18.4853 -18.4278 -18.3979
     7.9510   8.4162   8.7143   8.8884  10.3520  10.3618  11.1385

          k = 0.1685 0.5838 0.1591 (  1439 PWs)   bands (ev):

   -39.5682 -39.5553 -18.6923 -18.6386 -18.5303 -18.4428 -18.4425 -18.3794
     7.9445   8.3546   8.9724   9.0055  10.2288  10.2456  11.2126

          k = 0.1685 0.5838 0.2386 (  1449 PWs)   bands (ev):

   -39.5653 -39.5583 -18.7018 -18.6729 -18.5120 -18.4637 -18.4042 -18.3706
     7.9929   8.2333   9.2199   9.2804   9.9979  10.0676  11.3971

          k = 0.1685 0.5838-0.3182 (  1444 PWs)   bands (ev):

   -39.5618 -39.5618 -18.6955 -18.6955 -18.4882 -18.4882 -18.3785 -18.3785
     8.0981   8.0981   9.4216   9.4216   9.8848   9.8848  11.6823

          k = 0.2528 0.4379 0.0000 (  1438 PWs)   bands (ev):

   -39.5767 -39.5515 -18.6217 -18.5871 -18.5561 -18.4949 -18.4267 -18.4030
     7.4385   8.6977   8.8427   8.8913  10.2456  10.5936  10.9586

          k = 0.2528 0.4379 0.0795 (  1445 PWs)   bands (ev):

   -39.5758 -39.5525 -18.6241 -18.6206 -18.5180 -18.5071 -18.4296 -18.3903
     7.4847   8.6352   8.8806   8.9721  10.2291  10.4846  10.9669

          k = 0.2528 0.4379 0.1591 (  1446 PWs)   bands (ev):

   -39.5730 -39.5552 -18.6533 -18.6348 -18.5200 -18.4795 -18.4295 -18.3717
     7.6174   8.5010   8.9956   9.1421  10.1631  10.2276  11.0224

          k = 0.2528 0.4379 0.2386 (  1430 PWs)   bands (ev):

   -39.5689 -39.5593 -18.6697 -18.6536 -18.5153 -18.4805 -18.4033 -18.3652
     7.8202   8.3049   9.1765   9.3307   9.9584  10.0247  11.1869

          k = 0.2528 0.4379-0.3182 (  1438 PWs)   bands (ev):

   -39.5641 -39.5641 -18.6687 -18.6687 -18.4987 -18.4987 -18.3764 -18.3764
     8.0632   8.0632   9.3598   9.3598   9.8739   9.8739  11.4837

          k = 0.2528 0.5352 0.0000 (  1427 PWs)   bands (ev):

   -39.5668 -39.5539 -18.6389 -18.5744 -18.5341 -18.5149 -18.4520 -18.4362
     8.1302   8.6649   8.6888   8.7900  10.2217  10.3608  11.1941

          k = 0.2528 0.5352 0.0795 (  1431 PWs)   bands (ev):

   -39.5664 -39.5544 -18.6425 -18.5967 -18.5524 -18.4847 -18.4574 -18.4165
     8.1554   8.6292   8.7387   8.8771  10.1819  10.2623  11.1961

          k = 0.2528 0.5352 0.1591 (  1432 PWs)   bands (ev):

   -39.5650 -39.5558 -18.6570 -18.6279 -18.5635 -18.4821 -18.4302 -18.3882
     8.2262   8.5854   8.8741   9.0692  10.0083  10.0641  11.2291

          k = 0.2528 0.5352 0.2386 (  1433 PWs)   bands (ev):

   -39.5629 -39.5579 -18.6715 -18.6557 -18.5518 -18.5036 -18.3940 -18.3715
     8.3276   8.5257   9.0929   9.3203   9.6954   9.8572  11.3457

          k = 0.2528 0.5352-0.3182 (  1446 PWs)   bands (ev):

   -39.5604 -39.5604 -18.6719 -18.6719 -18.5289 -18.5289 -18.3732 -18.3732
     8.4357   8.4357   9.3747   9.3747   9.5967   9.5967  11.5828

          k = 0.3371 0.5838 0.0000 (  1434 PWs)   bands (ev):

   -39.5590 -39.5590 -18.6286 -18.5580 -18.5580 -18.4807 -18.4741 -18.4741
     8.5751   8.5751   8.6718   8.7207  10.2211  10.2211  11.2923

          k = 0.3371 0.5838 0.0795 (  1428 PWs)   bands (ev):

   -39.5590 -39.5590 -18.6230 -18.5833 -18.5833 -18.4863 -18.4485 -18.4485
     8.6215   8.6215   8.6909   8.7431  10.1432  10.1432  11.2913

          k = 0.3371 0.5838 0.1591 (  1431 PWs)   bands (ev):

   -39.5590 -39.5590 -18.6216 -18.6216 -18.6071 -18.5026 -18.4094 -18.4094
     8.7409   8.7530   8.7530   8.7944   9.9394   9.9394  11.3033

          k = 0.3371 0.5838 0.2386 (  1437 PWs)   bands (ev):

   -39.5590 -39.5590 -18.6492 -18.6492 -18.5833 -18.5267 -18.3811 -18.3811
     8.8014   8.8380   8.9413   8.9413   9.6850   9.6850  11.3899

          k = 0.3371 0.5838-0.3182 (  1428 PWs)   bands (ev):

   -39.5590 -39.5590 -18.6590 -18.6590 -18.5551 -18.5551 -18.3709 -18.3709
     8.8420   8.8420   9.0692   9.0692   9.5328   9.5328  11.6076

     the Fermi energy is     9.2404 ev

!    total energy              =    -306.86698091 Ry
     total all-electron energy =     -3050.007752 Ry
     estimated scf accuracy    <          3.5E-12 Ry
     smearing contrib. (-TS)   =      -0.00101533 Ry
     internal energy E=F+TS    =    -306.86596558 Ry

     The total energy is F=E-TS. E is the sum of the following terms:
     one-electron contribution =     -72.02861556 Ry
     hartree contribution      =      41.51027706 Ry
     xc contribution           =     -34.57395869 Ry
     ewald contribution        =    -128.01210793 Ry
     one-center paw contrib.   =    -113.76156047 Ry

     convergence has been achieved in  24 iterations

     Forces acting on atoms (cartesian axes, Ry/au):

     atom    1 type  1   force =    -0.00000000   -0.00000000    0.00000000
     atom    2 type  1   force =     0.00000000    0.00000000    0.00000000
     The non-local contrib.  to forces
     atom    1 type  1   force =    -0.00000000   -0.00000000    0.00000000
     atom    2 type  1   force =     0.00000000   -0.00000000    0.00000000
     The ionic contribution  to forces
     atom    1 type  1   force =     0.00000000   -0.00000000   -0.00000000
     atom    2 type  1   force =    -0.00000000    0.00000000    0.00000000
     The local contribution  to forces
     atom    1 type  1   force =     0.00000000    0.00000000    0.00000000
     atom    2 type  1   force =    -0.00000000    0.00000000    0.00000000
     The core correction contribution to forces
     atom    1 type  1   force =     0.00000000    0.00000000    0.00000000
     atom    2 type  1   force =     0.00000000   -0.00000000   -0.00000000
     The Hubbard contrib.    to forces
     atom    1 type  1   force =     0.00000000    0.00000000    0.00000000
     atom    2 type  1   force =     0.00000000    0.00000000    0.00000000
     The SCF correction term to forces
     atom    1 type  1   force =    -0.00000000    0.00000000   -0.00000000
     atom    2 type  1   force =    -0.00000000    0.00000000    0.00000000

     Total force =     0.000000     Total SCF correction =     0.000000


     Computing stress (Cartesian axis) and pressure

          total   stress  (Ry/bohr**3)                   (kbar)     P=      -47.00
  -0.00028013  -0.00000000   0.00000000          -41.21       -0.00        0.00
  -0.00000000  -0.00028013   0.00000000           -0.00      -41.21        0.00
  -0.00000000  -0.00000000  -0.00039832           -0.00       -0.00      -58.60

     Energy error            =      4.9E-03 Ry
     Gradient error          =      1.1E-27 Ry/Bohr
     Cell gradient error     =      5.9E+01 kbar

     number of scf cycles    =   2
     number of bfgs steps    =   1

     enthalpy           old  =    -306.8620383801 Ry
     enthalpy           new  =    -306.8669809061 Ry

     CASE: enthalpy          _new < enthalpy          _old

     new trust radius        =       0.0777159282 bohr
     new conv_thr            =            1.0E-10 Ry

     new unit-cell volume =    308.88827 a.u.^3 (    45.77252 Ang^3 )
     density =      3.23571 g/cm^3

CELL_PARAMETERS (alat=  6.25310370)
   0.974030484  -0.000000000  -0.000000000
  -0.487015242   0.843535143  -0.000000000
   0.000000000   0.000000000   1.537583817

ATOMIC_POSITIONS (crystal)
Sc           -0.0000000000       -0.0000000000        0.0000000000
Sc            0.6666666667        0.3333333333        0.5000000000



     Writing config-only to output data dir sc_vcrelax.out/scandium.save/
     NEW-OLD atomic charge density approx. for the potential

     Check: negative core charge=   -0.000012
     extrapolated charge   20.82290, renormalised to   22.00000

     total cpu time spent up to now is     1126.6 secs

     Self-consistent Calculation

     iteration #  1     ecut=    40.00 Ry     beta= 0.70
     Davidson diagonalization with overlap
     c_bands:  1 eigenvalues not converged
     c_bands:  1 eigenvalues not converged
     c_bands:  2 eigenvalues not converged
     c_bands:  1 eigenvalues not converged
     ethr =  1.00E-06,  avg # of iterations = 17.7

     total cpu time spent up to now is     1184.4 secs

     total energy              =    -306.46102142 Ry
     estimated scf accuracy    <       0.30159399 Ry

     iteration #  2     ecut=    40.00 Ry     beta= 0.70
     Davidson diagonalization with overlap
     ethr =  1.37E-03,  avg # of iterations =  6.0

     total cpu time spent up to now is     1238.3 secs

     total energy              =    -306.87950660 Ry
     estimated scf accuracy    <       0.52344848 Ry

     iteration #  3     ecut=    40.00 Ry     beta= 0.70
     Davidson diagonalization with overlap
     ethr =  1.37E-03,  avg # of iterations =  1.7

     total cpu time spent up to now is     1285.5 secs

     total energy              =    -306.87676867 Ry
     estimated scf accuracy    <       0.13929515 Ry

     iteration #  4     ecut=    40.00 Ry     beta= 0.70
     Davidson diagonalization with overlap
     ethr =  6.33E-04,  avg # of iterations =  2.9

     total cpu time spent up to now is     1342.7 secs

     total energy              =    -306.87297970 Ry
     estimated scf accuracy    <       0.06648343 Ry

     iteration #  5     ecut=    40.00 Ry     beta= 0.70
     Davidson diagonalization with overlap
     ethr =  3.02E-04,  avg # of iterations =  3.2

     total cpu time spent up to now is     1396.3 secs

     total energy              =    -306.88316208 Ry
     estimated scf accuracy    <       0.02943604 Ry

     iteration #  6     ecut=    40.00 Ry     beta= 0.70
     Davidson diagonalization with overlap
     ethr =  1.34E-04,  avg # of iterations =  1.4

     total cpu time spent up to now is     1459.5 secs

     total energy              =    -306.88273881 Ry
     estimated scf accuracy    <       0.03618356 Ry

     iteration #  7     ecut=    40.00 Ry     beta= 0.70
     Davidson diagonalization with overlap
     ethr =  1.34E-04,  avg # of iterations =  1.0

     total cpu time spent up to now is     1525.1 secs

     total energy              =    -306.88197997 Ry
     estimated scf accuracy    <       0.03342895 Ry

     iteration #  8     ecut=    40.00 Ry     beta= 0.70
     Davidson diagonalization with overlap
     ethr =  1.34E-04,  avg # of iterations =  1.0

     total cpu time spent up to now is     1587.8 secs

     total energy              =    -306.87414987 Ry
     estimated scf accuracy    <       0.03134632 Ry

     iteration #  9     ecut=    40.00 Ry     beta= 0.70
     Davidson diagonalization with overlap
     ethr =  1.34E-04,  avg # of iterations =  1.1

     total cpu time spent up to now is     1651.6 secs

     total energy              =    -306.87078305 Ry
     estimated scf accuracy    <       0.01614922 Ry

     iteration # 10     ecut=    40.00 Ry     beta= 0.70
     Davidson diagonalization with overlap
     ethr =  7.34E-05,  avg # of iterations =  2.3

     total cpu time spent up to now is     1714.8 secs

     total energy              =    -306.86672859 Ry
     estimated scf accuracy    <       0.00649813 Ry

     iteration # 11     ecut=    40.00 Ry     beta= 0.70
     Davidson diagonalization with overlap
     ethr =  2.95E-05,  avg # of iterations =  5.3

     total cpu time spent up to now is     1777.2 secs

     total energy              =    -306.87103181 Ry
     estimated scf accuracy    <       0.00236176 Ry

     iteration # 12     ecut=    40.00 Ry     beta= 0.70
     Davidson diagonalization with overlap
     ethr =  1.07E-05,  avg # of iterations =  1.9

     total cpu time spent up to now is     1827.6 secs

     total energy              =    -306.87013511 Ry
     estimated scf accuracy    <       0.00175933 Ry

     iteration # 13     ecut=    40.00 Ry     beta= 0.70
     Davidson diagonalization with overlap
     ethr =  8.00E-06,  avg # of iterations =  3.5

     total cpu time spent up to now is     1887.1 secs

     total energy              =    -306.87044597 Ry
     estimated scf accuracy    <       0.00006547 Ry

     iteration # 14     ecut=    40.00 Ry     beta= 0.70
     Davidson diagonalization with overlap
     ethr =  2.98E-07,  avg # of iterations =  5.2

     total cpu time spent up to now is     1934.0 secs

     total energy              =    -306.87053592 Ry
     estimated scf accuracy    <       0.00006497 Ry

     iteration # 15     ecut=    40.00 Ry     beta= 0.70
     Davidson diagonalization with overlap
     ethr =  2.95E-07,  avg # of iterations =  3.7

     total cpu time spent up to now is     1984.6 secs

     total energy              =    -306.87073402 Ry
     estimated scf accuracy    <       0.00023612 Ry

     iteration # 16     ecut=    40.00 Ry     beta= 0.70
     Davidson diagonalization with overlap
     ethr =  2.95E-07,  avg # of iterations =  5.0

     total cpu time spent up to now is     2024.1 secs

     total energy              =    -306.87070798 Ry
     estimated scf accuracy    <       0.00080635 Ry

     iteration # 17     ecut=    40.00 Ry     beta= 0.70
     Davidson diagonalization with overlap
     ethr =  2.95E-07,  avg # of iterations =  1.1

     total cpu time spent up to now is     2056.4 secs

     total energy              =    -306.87067793 Ry
     estimated scf accuracy    <       0.00067903 Ry

     iteration # 18     ecut=    40.00 Ry     beta= 0.70
     Davidson diagonalization with overlap
     ethr =  2.95E-07,  avg # of iterations =  1.0

     total cpu time spent up to now is     2079.6 secs

     total energy              =    -306.87047543 Ry
     estimated scf accuracy    <       0.00061265 Ry

     iteration # 19     ecut=    40.00 Ry     beta= 0.70
     Davidson diagonalization with overlap
     ethr =  2.95E-07,  avg # of iterations =  4.4

     total cpu time spent up to now is     2101.6 secs

     total energy              =    -306.87044893 Ry
     estimated scf accuracy    <       0.00016501 Ry

     iteration # 20     ecut=    40.00 Ry     beta= 0.70
     Davidson diagonalization with overlap
     ethr =  2.95E-07,  avg # of iterations =  3.4

     total cpu time spent up to now is     2126.3 secs

     total energy              =    -306.87043493 Ry
     estimated scf accuracy    <       0.00004021 Ry

     iteration # 21     ecut=    40.00 Ry     beta= 0.70
     Davidson diagonalization with overlap
     ethr =  1.83E-07,  avg # of iterations =  4.4

     total cpu time spent up to now is     2144.2 secs

     total energy              =    -306.87045099 Ry
     estimated scf accuracy    <       0.00000105 Ry

     iteration # 22     ecut=    40.00 Ry     beta= 0.70
     Davidson diagonalization with overlap
     ethr =  4.75E-09,  avg # of iterations =  6.6

     total cpu time spent up to now is     2179.1 secs

     total energy              =    -306.87045065 Ry
     estimated scf accuracy    <       0.00000212 Ry

     iteration # 23     ecut=    40.00 Ry     beta= 0.70
     Davidson diagonalization with overlap
     ethr =  4.75E-09,  avg # of iterations =  4.2

     total cpu time spent up to now is     2212.0 secs

     total energy              =    -306.87045112 Ry
     estimated scf accuracy    <          2.8E-09 Ry

     iteration # 24     ecut=    40.00 Ry     beta= 0.70
     Davidson diagonalization with overlap
     ethr =  1.26E-11,  avg # of iterations = 10.7

     total cpu time spent up to now is     2245.6 secs

     total energy              =    -306.87045113 Ry
     estimated scf accuracy    <          7.9E-09 Ry

     iteration # 25     ecut=    40.00 Ry     beta= 0.70
     Davidson diagonalization with overlap
     ethr =  1.26E-11,  avg # of iterations =  4.7

     total cpu time spent up to now is     2285.5 secs

     End of self-consistent calculation

          k = 0.0000 0.0000 0.0000 (  1449 PWs)   bands (ev):

   -38.8914 -38.7942 -18.0595 -17.6046 -17.6046 -17.5238 -17.5238 -17.4980
     4.6285   8.0841  10.6022  11.4970  11.4970  11.6939  11.9749

          k = 0.0000 0.0000 0.0813 (  1436 PWs)   bands (ev):

   -38.8877 -38.7979 -18.0389 -17.6015 -17.6015 -17.5268 -17.5268 -17.5202
     4.7399   7.9582  10.5279  11.4453  11.4453  11.6196  11.9075

          k = 0.0000 0.0000 0.1626 (  1460 PWs)   bands (ev):

   -38.8773 -38.8086 -17.9801 -17.5928 -17.5928 -17.5832 -17.5356 -17.5356
     5.0654   7.5592  10.4535  11.3687  11.3687  11.4072  11.7447

          k = 0.0000 0.0000 0.2439 (  1460 PWs)   bands (ev):

   -38.8616 -38.8244 -17.8911 -17.6764 -17.5797 -17.5797 -17.5488 -17.5488
     5.5783   6.9336  10.5476  11.1108  11.3535  11.3535  11.5636

          k =-0.0000-0.0000-0.3252 (  1448 PWs)   bands (ev):

   -38.8430 -38.8430 -17.7846 -17.7846 -17.5642 -17.5642 -17.5642 -17.5642
     6.2290   6.2290  10.7950  10.7950  11.4233  11.4233  11.4233

          k = 0.0000 0.0988-0.0000 (  1431 PWs)   bands (ev):

   -38.8866 -38.7924 -18.0475 -17.6286 -17.6127 -17.5489 -17.5269 -17.5032
     4.7915   8.2218  10.4386  11.2046  11.6219  11.8508  11.9263

          k = 0.0000 0.0988 0.0813 (  1438 PWs)   bands (ev):

   -38.8831 -38.7960 -18.0282 -17.6250 -17.6094 -17.5601 -17.5302 -17.5165
     4.9010   8.0969  10.3655  11.1980  11.5534  11.7185  11.8364

          k = 0.0000 0.0988 0.1626 (  1451 PWs)   bands (ev):

   -38.8730 -38.8063 -17.9730 -17.6153 -17.6059 -17.6002 -17.5395 -17.5393
     5.2212   7.6965  10.3079  11.1996  11.4106  11.4645  11.7172

          k = 0.0000 0.0988 0.2439 (  1453 PWs)   bands (ev):

   -38.8578 -38.8217 -17.8896 -17.6902 -17.5982 -17.5863 -17.5593 -17.5535
     5.7266   7.0697  10.4301  11.0539  11.2546  11.4467  11.5394

          k = 0.0000 0.0988-0.3252 (  1456 PWs)   bands (ev):

   -38.8398 -38.8398 -17.7903 -17.7903 -17.5792 -17.5792 -17.5699 -17.5699
     6.3695   6.3695  10.7060  10.7060  11.3690  11.3694  11.5145

          k = 0.0000 0.1976-0.0000 (  1439 PWs)   bands (ev):

   -38.8734 -38.7877 -18.0132 -17.6949 -17.6342 -17.6163 -17.5361 -17.5188
     5.2626   8.5868  10.0662  10.7380  11.5970  11.9750  11.9899

          k = 0.0000 0.1976 0.0813 (  1443 PWs)   bands (ev):

   -38.8701 -38.7910 -17.9982 -17.6891 -17.6305 -17.6301 -17.5398 -17.5270
     5.3659   8.4674  10.0037  10.7588  11.5876  11.7395  11.7899

          k = 0.0000 0.1976 0.1626 (  1446 PWs)   bands (ev):

   -38.8609 -38.8003 -17.9553 -17.6812 -17.6620 -17.6199 -17.5505 -17.5486
     5.6687   8.0651   9.9958  10.8195  11.3333  11.6031  11.6867

          k = 0.0000 0.1976 0.2439 (  1443 PWs)   bands (ev):

   -38.8470 -38.8143 -17.8907 -17.7382 -17.6425 -17.6040 -17.5782 -17.5665
     6.1480   7.4412  10.1782  10.8090  11.0944  11.4310  11.6813

          k = 0.0000 0.1976-0.3252 (  1448 PWs)   bands (ev):

   -38.8307 -38.8307 -17.8143 -17.8143 -17.6111 -17.6111 -17.5853 -17.5853
     6.7622   6.7622  10.4913  10.4913  11.2204  11.2204  11.7656

          k = 0.0000 0.2964-0.0000 (  1439 PWs)   bands (ev):

   -38.8544 -38.7820 -17.9617 -17.7863 -17.7053 -17.6622 -17.5497 -17.5450
     5.9864   8.9971   9.6646  10.2770  11.3715  11.6516  11.7111

          k = 0.0000 0.2964 0.0813 (  1443 PWs)   bands (ev):

   -38.8516 -38.7848 -17.9570 -17.7745 -17.7185 -17.6580 -17.5540 -17.5487
     6.0775   8.8930   9.6309  10.3109  11.3280  11.6037  11.7261

          k = 0.0000 0.2964 0.1626 (  1437 PWs)   bands (ev):

   -38.8438 -38.7927 -17.9408 -17.7704 -17.7255 -17.6459 -17.5663 -17.5630
     6.3442   8.5029   9.7067  10.3969  11.1535  11.4951  11.7832

          k = 0.0000 0.2964 0.2439 (  1449 PWs)   bands (ev):

   -38.8321 -38.8045 -17.9106 -17.8164 -17.6824 -17.6278 -17.5917 -17.5847
[...]

          k = 0.0000 0.3951 0.1656 (  1296 PWs)   bands (ev):

   -38.5767 -38.5312 -17.7297 -17.6112 -17.5044 -17.4278 -17.3255 -17.3188
     7.3307   8.9536   9.7303  10.2895  11.3521  11.7627  11.8707

          k = 0.0000 0.3951 0.2484 (  1292 PWs)   bands (ev):

   -38.5662 -38.5417 -17.7294 -17.6616 -17.4357 -17.4044 -17.3491 -17.3367
     7.6539   8.5244   9.9950  10.3673  11.2443  11.5461  12.1462

          k = 0.0000 0.3951-0.3313 (  1298 PWs)   bands (ev):

   -38.5540 -38.5540 -17.7049 -17.7049 -17.3769 -17.3769 -17.3768 -17.3768
     8.0671   8.0671  10.2605  10.2605  11.3151  11.3151  12.4975

          k = 0.0000 0.4938-0.0000 (  1304 PWs)   bands (ev):

   -38.5677 -38.5221 -17.7034 -17.6129 -17.5958 -17.4688 -17.3635 -17.3143
     7.9130   9.1109   9.3475   9.9062  11.4768  11.5496  11.9938

          k = 0.0000 0.4938 0.0828 (  1302 PWs)   bands (ev):

   -38.5660 -38.5238 -17.7318 -17.6227 -17.5659 -17.4629 -17.3544 -17.3202
     7.9348   9.0510   9.4402   9.9335  11.5548  11.5571  11.9362

          k = 0.0000 0.4938 0.1656 (  1298 PWs)   bands (ev):

   -38.5610 -38.5287 -17.7646 -17.6710 -17.4950 -17.4463 -17.3424 -17.3372
     8.0101   8.8827   9.6587  10.0515  11.5324  11.7739  11.7827

          k = 0.0000 0.4938 0.2484 (  1291 PWs)   bands (ev):

   -38.5535 -38.5361 -17.7751 -17.7221 -17.4271 -17.4215 -17.3625 -17.3467
     8.1562   8.6340   9.9371  10.2041  11.4445  11.6055  12.1268

          k = 0.0000 0.4938-0.3313 (  1296 PWs)   bands (ev):

   -38.5448 -38.5448 -17.7600 -17.7600 -17.3921 -17.3921 -17.3753 -17.3753
     8.3727   8.3727  10.1762  10.1762  11.4517  11.4517  12.5869

          k =-0.0000-0.5926 0.0000 (  1312 PWs)   bands (ev):

   -38.5599 -38.5233 -17.7286 -17.6175 -17.5841 -17.4761 -17.3856 -17.3184
     8.4082   8.8882   9.2671   9.8048  11.4193  11.4933  12.1096

          k =-0.0000-0.5926 0.0828 (  1308 PWs)   bands (ev):

   -38.5584 -38.5247 -17.7507 -17.6411 -17.5498 -17.4702 -17.3731 -17.3244
     8.3596   8.8796   9.4235   9.7805  11.5010  11.5677  12.0207

          k =-0.0000-0.5926 0.1656 (  1290 PWs)   bands (ev):

   -38.5544 -38.5286 -17.7816 -17.6923 -17.4840 -17.4531 -17.3545 -17.3412
     8.3065   8.8053   9.7707   9.8098  11.6861  11.7396  11.7915

          k =-0.0000-0.5926 0.2484 (  1302 PWs)   bands (ev):

   -38.5485 -38.5345 -17.7939 -17.7442 -17.4277 -17.4208 -17.3674 -17.3519
     8.3354   8.6380   9.9739  10.0953  11.5619  11.6877  12.1065

          k =-0.0000-0.5926-0.3313 (  1300 PWs)   bands (ev):

   -38.5415 -38.5415 -17.7807 -17.7807 -17.3977 -17.3977 -17.3742 -17.3742
     8.4575   8.4575  10.1568  10.1568  11.5567  11.5567  12.6028

          k = 0.0855 0.1481-0.0000 (  1296 PWs)   bands (ev):

   -38.6325 -38.5303 -17.8057 -17.4247 -17.3941 -17.3306 -17.2786 -17.2447
     5.3017   8.6832  10.5336  11.0785  11.9524  12.1149  12.1331

          k = 0.0855 0.1481 0.0828 (  1300 PWs)   bands (ev):

   -38.6287 -38.5343 -17.7878 -17.4188 -17.3919 -17.3443 -17.2828 -17.2547
     5.4117   8.5797  10.4343  11.0901  11.9382  11.9655  11.9903

          k = 0.0855 0.1481 0.1656 (  1292 PWs)   bands (ev):

   -38.6177 -38.5454 -17.7365 -17.4065 -17.4017 -17.3658 -17.2946 -17.2789
     5.7335   8.2093  10.3559  11.1320  11.6584  11.8154  11.9257

          k = 0.0855 0.1481 0.2484 (  1284 PWs)   bands (ev):

   -38.6012 -38.5621 -17.6591 -17.4765 -17.3760 -17.3546 -17.3119 -17.3093
     6.2411   7.5893  10.4983  11.1128  11.4121  11.7078  11.8279

          k = 0.0855 0.1481-0.3313 (  1272 PWs)   bands (ev):

   -38.5816 -38.5816 -17.5673 -17.5673 -17.3475 -17.3475 -17.3294 -17.3294
     6.8870   6.8870  10.8042  10.8042  11.5164  11.5164  11.8906

          k = 0.0855 0.2469-0.0000 (  1293 PWs)   bands (ev):

   -38.6155 -38.5260 -17.7597 -17.4968 -17.4486 -17.3820 -17.2941 -17.2690
     5.9031   9.0805  10.1241  10.6037  11.7283  11.8159  12.1517

          k = 0.0855 0.2469 0.0828 (  1292 PWs)   bands (ev):

   -38.6121 -38.5295 -17.7493 -17.4875 -17.4527 -17.3901 -17.2992 -17.2725
     6.0036   8.9961  10.0397  10.6344  11.7020  11.8201  12.0477

          k = 0.0855 0.2469 0.1656 (  1298 PWs)   bands (ev):

   -38.6025 -38.5393 -17.7191 -17.4902 -17.4509 -17.3940 -17.3130 -17.2870
     6.2978   8.6315  10.0281  10.7176  11.4973  11.7955  11.9652

          k = 0.0855 0.2469 0.2484 (  1288 PWs)   bands (ev):

   -38.5880 -38.5538 -17.6707 -17.5449 -17.4119 -17.3810 -17.3327 -17.3148
     6.7635   8.0228  10.2379  10.7703  11.2787  11.5895  12.0353

          k = 0.0855 0.2469-0.3313 (  1286 PWs)   bands (ev):

   -38.5709 -38.5709 -17.6098 -17.6098 -17.3746 -17.3746 -17.3440 -17.3440
     7.3607   7.3607  10.5534  10.5534  11.3536  11.3536  12.1647

          k = 0.0855 0.3457-0.0000 (  1291 PWs)   bands (ev):

   -38.5944 -38.5225 -17.6992 -17.5878 -17.5139 -17.4303 -17.3106 -17.3044
     6.7126   9.3721   9.7414  10.1941  11.5603  11.6591  11.9119

          k = 0.0855 0.3457 0.0828 (  1292 PWs)   bands (ev):

   -38.5917 -38.5252 -17.7081 -17.5685 -17.5196 -17.4320 -17.3182 -17.3004
     6.7954   9.3164   9.6976  10.2407  11.4699  11.7424  11.8696

          k = 0.0855 0.3457 0.1656 (  1291 PWs)   bands (ev):

   -38.5839 -38.5330 -17.7151 -17.5784 -17.4922 -17.4251 -17.3344 -17.3022
     7.0377   8.9791   9.8035  10.3501  11.3173  11.7122  11.9142

          k = 0.0855 0.3457 0.2484 (  1296 PWs)   bands (ev):

   -38.5723 -38.5448 -17.7037 -17.6258 -17.4374 -17.4043 -17.3562 -17.3209
     7.4209   8.4590  10.0601  10.4441  11.1694  11.4682  12.1322

          k = 0.0855 0.3457-0.3313 (  1290 PWs)   bands (ev):

   -38.5585 -38.5585 -17.6719 -17.6719 -17.3985 -17.3985 -17.3536 -17.3536
     7.9119   7.9119  10.3376  10.3376  11.2250  11.2250  12.4086

          k = 0.0855 0.4444-0.0000 (  1296 PWs)   bands (ev):

   -38.5739 -38.5215 -17.6685 -17.6344 -17.5725 -17.4666 -17.3475 -17.3250
     7.5998   9.3050   9.4575   9.9490  11.4061  11.6716  11.8674

          k = 0.0855 0.4444 0.0828 (  1300 PWs)   bands (ev):

   -38.5720 -38.5236 -17.7073 -17.6103 -17.5631 -17.4633 -17.3449 -17.3256
     7.6498   9.2377   9.5020  10.0097  11.3929  11.6447  11.8737

          k = 0.0855 0.4444 0.1656 (  1297 PWs)   bands (ev):

   -38.5663 -38.5292 -17.7402 -17.6463 -17.5041 -17.4454 -17.3561 -17.3213
     7.7978   9.0105   9.6862  10.1520  11.3024  11.5965  11.9333

          k = 0.0855 0.4444 0.2484 (  1293 PWs)   bands (ev):

   -38.5577 -38.5377 -17.7488 -17.6944 -17.4537 -17.4104 -17.3766 -17.3284
     8.0357   8.6885   9.9660  10.2814  11.1978  11.4004  12.1801

          k = 0.0855 0.4444-0.3313 (  1286 PWs)   bands (ev):

   -38.5477 -38.5477 -17.7321 -17.7321 -17.4182 -17.4182 -17.3555 -17.3555
     8.3448   8.3448  10.2261  10.2261  11.2157  11.2157  12.5562

          k = 0.0855 0.5432-0.0000 (  1299 PWs)   bands (ev):

   -38.5599 -38.5232 -17.7151 -17.6067 -17.5846 -17.4861 -17.3848 -17.3332
     8.3439   9.0550   9.3080   9.7888  11.3637  11.4984  12.0999

          k = 0.0855 0.5432 0.0828 (  1305 PWs)   bands (ev):

   -38.5585 -38.5246 -17.7374 -17.6316 -17.5528 -17.4770 -17.3753 -17.3363
     8.3286   9.0215   9.4380   9.7995  11.3972  11.5150  12.0529

          k = 0.0855 0.5432 0.1656 (  1295 PWs)   bands (ev):

   -38.5545 -38.5285 -17.7682 -17.6819 -17.5036 -17.4449 -17.3743 -17.3352
     8.3274   8.9175   9.7013   9.9242  11.4045  11.5274  12.0353

          k = 0.0855 0.5432 0.2484 (  1295 PWs)   bands (ev):

   -38.5485 -38.5345 -17.7808 -17.7328 -17.4647 -17.4027 -17.3908 -17.3349
     8.3941   8.7341   9.9731  10.1655  11.2761  11.4377  12.2637

          k = 0.0855 0.5432-0.3313 (  1290 PWs)   bands (ev):

   -38.5415 -38.5415 -17.7683 -17.7683 -17.4299 -17.4299 -17.3547 -17.3547
     8.5391   8.5391  10.2017  10.2017  11.2749  11.2749  12.6640

          k = 0.1711 0.2963-0.0000 (  1290 PWs)   bands (ev):

   -38.5974 -38.5227 -17.7080 -17.5447 -17.5355 -17.4091 -17.3243 -17.2990
     6.5957   9.4274   9.8166  10.1872  11.4927  11.6328  12.0112

          k = 0.1711 0.2963 0.0828 (  1290 PWs)   bands (ev):

   -38.5945 -38.5257 -17.7106 -17.5412 -17.5246 -17.4200 -17.3292 -17.2952
     6.6830   9.3738   9.7519  10.2255  11.4607  11.6889  11.9383

          k = 0.1711 0.2963 0.1656 (  1290 PWs)   bands (ev):

   -38.5865 -38.5338 -17.7087 -17.5659 -17.4772 -17.4308 -17.3430 -17.2964
     6.9386   9.0093   9.8424  10.3370  11.3323  11.6744  11.8972

          k = 0.1711 0.2963 0.2484 (  1292 PWs)   bands (ev):

   -38.5744 -38.5459 -17.6913 -17.6099 -17.4256 -17.4234 -17.3586 -17.3141
     7.3434   8.4474  10.0966  10.4575  11.1510  11.4128  12.1015

          k = 0.1711 0.2963-0.3313 (  1296 PWs)   bands (ev):

   -38.5602 -38.5602 -17.6563 -17.6563 -17.4090 -17.4090 -17.3465 -17.3465
     7.8638   7.8638  10.3742  10.3742  11.1661  11.1661  12.3511

          k = 0.1711 0.3951-0.0000 (  1290 PWs)   bands (ev):

   -38.5774 -38.5214 -17.6460 -17.6216 -17.5761 -17.4544 -17.3523 -17.3392
     7.4406   9.5593   9.5646   9.8739  11.2829  11.7558  11.7750

          k = 0.1711 0.3951 0.0828 (  1292 PWs)   bands (ev):

   -38.5753 -38.5235 -17.6819 -17.6108 -17.5458 -17.4648 -17.3596 -17.3268
     7.5063   9.4556   9.6240   9.9328  11.2623  11.6833  11.7868

          k = 0.1711 0.3951 0.1656 (  1299 PWs)   bands (ev):

   -38.5692 -38.5296 -17.7126 -17.6325 -17.4933 -17.4638 -17.3740 -17.3132
     7.6982   9.1808   9.7965  10.0689  11.1815  11.4821  11.8769

          k = 0.1711 0.3951 0.2484 (  1298 PWs)   bands (ev):

   -38.5601 -38.5387 -17.7202 -17.6705 -17.4701 -17.4336 -17.3769 -17.3175
     7.9998   8.7981  10.0447  10.2286  11.0453  11.2063  12.1011

          k = 0.1711 0.3951-0.3313 (  1290 PWs)   bands (ev):

   -38.5494 -38.5494 -17.7041 -17.7041 -17.4465 -17.4465 -17.3434 -17.3434
     8.3819   8.3819  10.2550  10.2550  11.0049  11.0049  12.4408

          k = 0.1711 0.4938-0.0000 (  1298 PWs)   bands (ev):

   -38.5600 -38.5231 -17.6807 -17.5916 -17.5857 -17.5002 -17.3837 -17.3710
     8.2721   9.3656   9.4010   9.7368  11.2109  11.5232  12.0502

          k = 0.1711 0.4938 0.0828 (  1297 PWs)   bands (ev):

   -38.5586 -38.5245 -17.7015 -17.6247 -17.5481 -17.4934 -17.3877 -17.3569
     8.3003   9.2990   9.4818   9.8176  11.2018  11.4453  12.0479

          k = 0.1711 0.4938 0.1656 (  1300 PWs)   bands (ev):

   -38.5546 -38.5285 -17.7333 -17.6653 -17.5297 -17.4496 -17.4004 -17.3327
     8.3876   9.1563   9.6785  10.0155  11.1333  11.2501  12.0893

          k = 0.1711 0.4938 0.2484 (  1302 PWs)   bands (ev):

   -38.5486 -38.5345 -17.7485 -17.7090 -17.5061 -17.4452 -17.3767 -17.3240
     8.5364   8.9567   9.9689  10.2408  10.9616  11.0119  12.2610

          k = 0.1711 0.4938-0.3313 (  1298 PWs)   bands (ev):

   -38.5415 -38.5415 -17.7397 -17.7397 -17.4752 -17.4752 -17.3395 -17.3395
     8.7363   8.7363  10.2535  10.2535  10.8587  10.8587  12.5711

          k = 0.1711 0.5926-0.0000 (  1298 PWs)   bands (ev):

   -38.5521 -38.5253 -17.7018 -17.5933 -17.5548 -17.5214 -17.4087 -17.3776
     8.7479   9.1762   9.3454   9.6515  11.2401  11.3793  12.1963

          k = 0.1711 0.5926 0.0828 (  1301 PWs)   bands (ev):

   -38.5511 -38.5263 -17.7180 -17.6194 -17.5591 -17.4853 -17.4068 -17.3683
     8.7141   9.1766   9.4798   9.6724  11.2155  11.3382  12.1872

          k = 0.1711 0.5926 0.1656 (  1299 PWs)   bands (ev):

   -38.5481 -38.5292 -17.7460 -17.6718 -17.5466 -17.4259 -17.4224 -17.3425
     8.6890   9.1261   9.7905   9.7928  11.1058  11.2173  12.2206

          k = 0.1711 0.5926 0.2484 (  1304 PWs)   bands (ev):

   -38.5438 -38.5335 -17.7609 -17.7211 -17.5197 -17.4513 -17.3725 -17.3282
     8.7331   8.9970  10.0375  10.1590  10.8709  11.0125  12.3842

          k = 0.1711 0.5926-0.3313 (  1298 PWs)   bands (ev):

   -38.5386 -38.5386 -17.7528 -17.7528 -17.4858 -17.4858 -17.3377 -17.3377
     8.8470   8.8470  10.3039  10.3039  10.7708  10.7708  12.6861

          k = 0.2566 0.4444-0.0000 (  1308 PWs)   bands (ev):

   -38.5602 -38.5231 -17.6514 -17.6020 -17.5863 -17.4934 -17.3985 -17.3832
     8.2489   9.4535   9.5907   9.6388  11.1277  11.5360  12.0057

          k = 0.2566 0.4444 0.0828 (  1300 PWs)   bands (ev):

   -38.5587 -38.5244 -17.6577 -17.6540 -17.5229 -17.5137 -17.4033 -17.3620
     8.2952   9.3913   9.6354   9.7401  11.1181  11.4148  12.0054

          k = 0.2566 0.4444 0.1656 (  1299 PWs)   bands (ev):

   -38.5547 -38.5284 -17.7031 -17.6699 -17.5331 -17.4669 -17.4069 -17.3323
     8.4274   9.2708   9.7696   9.9470  11.0639  11.1269  12.0328

          k = 0.2566 0.4444 0.2484 (  1302 PWs)   bands (ev):

   -38.5486 -38.5344 -17.7253 -17.6993 -17.5241 -17.4702 -17.3713 -17.3209
     8.6272   9.0921   9.9823  10.1780  10.8184  10.9175  12.1707

          k = 0.2566 0.4444-0.3313 (  1290 PWs)   bands (ev):

   -38.5415 -38.5415 -17.7222 -17.7222 -17.4980 -17.4980 -17.3345 -17.3345
     8.8640   8.8640  10.2104  10.2104  10.7368  10.7368  12.4744

          k = 0.2566 0.5432-0.0000 (  1308 PWs)   bands (ev):

   -38.5466 -38.5275 -17.6740 -17.5845 -17.5406 -17.5323 -17.4279 -17.4268
     8.9225   9.4036   9.4228   9.5525  11.1161  11.3085  12.2608

          k = 0.2566 0.5432 0.0828 (  1301 PWs)   bands (ev):

   -38.5459 -38.5282 -17.6794 -17.6216 -17.5700 -17.4817 -17.4368 -17.3954
     8.9437   9.3789   9.4836   9.6436  11.0813  11.2009  12.2524

          k = 0.2566 0.5432 0.1656 (  1307 PWs)   bands (ev):

   -38.5438 -38.5303 -17.7035 -17.6646 -17.5865 -17.4674 -17.4078 -17.3535
     9.0056   9.3477   9.6445   9.8599  10.9255  10.9629  12.2615

          k = 0.2566 0.5432 0.2484 (  1306 PWs)   bands (ev):

   -38.5406 -38.5333 -17.7261 -17.7042 -17.5673 -17.4974 -17.3580 -17.3286
     9.1009   9.2942   9.9010  10.1489  10.5818  10.7502  12.3586

          k = 0.2566 0.5432-0.3313 (  1304 PWs)   bands (ev):

   -38.5370 -38.5370 -17.7271 -17.7271 -17.5336 -17.5336 -17.3296 -17.3296
     9.2069   9.2069  10.2244  10.2244  10.4652  10.4652  12.6051

          k = 0.3421 0.5926-0.0000 (  1320 PWs)   bands (ev):

   -38.5355 -38.5355 -17.6658 -17.5666 -17.5666 -17.4784 -17.4784 -17.4577
     9.3445   9.3445   9.4146   9.4449  11.1477  11.1477  12.3689

          k = 0.3421 0.5926 0.0828 (  1311 PWs)   bands (ev):

   -38.5354 -38.5354 -17.6579 -17.6069 -17.6069 -17.4657 -17.4374 -17.4374
     9.3961   9.3961   9.4445   9.4665  11.0635  11.0635  12.3593

          k = 0.3421 0.5926 0.1656 (  1302 PWs)   bands (ev):

   -38.5353 -38.5353 -17.6621 -17.6621 -17.6356 -17.4886 -17.3806 -17.3806
     9.5187   9.5215   9.5403   9.5403  10.8488  10.8488  12.3559

          k = 0.3421 0.5926 0.2484 (  1302 PWs)   bands (ev):

   -38.5353 -38.5353 -17.7008 -17.7008 -17.6024 -17.5226 -17.3405 -17.3405
     9.5836   9.5928   9.7427   9.7427  10.5842  10.5842  12.4223

          k = 0.3421 0.5926-0.3313 (  1308 PWs)   bands (ev):

   -38.5353 -38.5353 -17.7145 -17.7145 -17.5626 -17.5626 -17.3264 -17.3264
     9.6167   9.6167   9.8752   9.8752  10.4270  10.4270  12.6376

     the Fermi energy is    10.0665 ev

!    total energy              =    -306.86880815 Ry
     total all-electron energy =     -3050.009579 Ry
     estimated scf accuracy    <          8.4E-11 Ry
     smearing contrib. (-TS)   =      -0.00079135 Ry
     internal energy E=F+TS    =    -306.86801680 Ry

     The total energy is F=E-TS. E is the sum of the following terms:
     one-electron contribution =     -67.51874261 Ry
     hartree contribution      =      40.08393216 Ry
     xc contribution           =     -34.66896792 Ry
     ewald contribution        =    -131.00372628 Ry
     one-center paw contrib.   =    -113.76051216 Ry

     convergence has been achieved in   8 iterations

     Forces acting on atoms (cartesian axes, Ry/au):

     atom    1 type  1   force =    -0.00000000    0.00000000    0.00000000
     atom    2 type  1   force =     0.00000000    0.00000000   -0.00000000
     The non-local contrib.  to forces
     atom    1 type  1   force =     0.00000000    0.00000000    0.00000000
     atom    2 type  1   force =    -0.00000000    0.00000000    0.00000000
     The ionic contribution  to forces
     atom    1 type  1   force =     0.00000000   -0.00000000   -0.00000000
     atom    2 type  1   force =    -0.00000000    0.00000000    0.00000000
     The local contribution  to forces
     atom    1 type  1   force =     0.00000000    0.00000000    0.00000000
     atom    2 type  1   force =    -0.00000000    0.00000000    0.00000000
     The core correction contribution to forces
     atom    1 type  1   force =     0.00000000    0.00000000    0.00000000
     atom    2 type  1   force =     0.00000000   -0.00000000   -0.00000000
     The Hubbard contrib.    to forces
     atom    1 type  1   force =     0.00000000    0.00000000    0.00000000
     atom    2 type  1   force =     0.00000000    0.00000000    0.00000000
     The SCF correction term to forces
     atom    1 type  1   force =    -0.00000000    0.00000000   -0.00000000
     atom    2 type  1   force =    -0.00000000    0.00000000    0.00000000

     Total force =     0.000000     Total SCF correction =     0.000000


     Computing stress (Cartesian axis) and pressure

          total   stress  (Ry/bohr**3)                   (kbar)     P=      -16.63
  -0.00010760  -0.00000000  -0.00000000          -15.83       -0.00       -0.00
  -0.00000000  -0.00010760  -0.00000000           -0.00      -15.83       -0.00
   0.00000000   0.00000000  -0.00012397            0.00        0.00      -18.24


     Writing all to output data dir sc_vcrelax.out/scandium.save/

     init_run     :     12.72s CPU     22.57s WALL (       2 calls)
     electrons    :     90.46s CPU   4550.60s WALL (       9 calls)
     update_pot   :      5.61s CPU     12.34s WALL (       7 calls)
     forces       :      4.32s CPU      4.33s WALL (       9 calls)
     stress       :     11.51s CPU     11.68s WALL (       9 calls)

     Called by init_run:
     wfcinit      :     10.63s CPU     19.76s WALL (       2 calls)
     potinit      :      0.41s CPU      1.12s WALL (       2 calls)
     hinit0       :      1.31s CPU      1.32s WALL (       2 calls)

     Called by electrons:
     c_bands      :     65.91s CPU   4192.65s WALL (     116 calls)
     sum_band     :     10.71s CPU     10.93s WALL (     116 calls)
     v_of_rho     :      0.51s CPU      0.51s WALL (     123 calls)
     newd         :      1.67s CPU      1.67s WALL (     123 calls)
     PAW_pot      :      3.97s CPU      3.98s WALL (     130 calls)
     mix_rho      :      0.22s CPU      0.23s WALL (     116 calls)

     Called by c_bands:
     init_us_2    :      1.29s CPU      9.29s WALL (    6216 calls)
     init_us_2:cp :      1.27s CPU      6.65s WALL (    6216 calls)
     cegterg      :     62.80s CPU     64.30s WALL (    2784 calls)

     Called by *egterg:
     cdiaghg      :      4.17s CPU      4.27s WALL (   14613 calls)
     h_psi        :     57.37s CPU     58.61s WALL (   14877 calls)
     s_psi        :      2.58s CPU      2.63s WALL (   14877 calls)
     g_psi        :      0.21s CPU      0.22s WALL (   12045 calls)

     Called by h_psi:
     h_psi:calbec :      2.78s CPU      2.85s WALL (   14877 calls)
     vloc_psi     :     51.83s CPU     52.95s WALL (   14877 calls)
     add_vuspsi   :      2.58s CPU      2.64s WALL (   14877 calls)

     General routines
     calbec       :      3.98s CPU      4.08s WALL (   18909 calls)
     fft          :      0.64s CPU      0.65s WALL (     801 calls)
     ffts         :      0.06s CPU      0.06s WALL (     239 calls)
     fftw         :     52.79s CPU     53.86s WALL (  297054 calls)
     interpolate  :      0.15s CPU      0.15s WALL (     123 calls)

     Parallel routines

     PWSCF        :   2m 5.62s CPU      1h21m WALL


   This run was terminated on:  12:21:36  21Jul2023            

=------------------------------------------------------------------------------=
   JOB DONE.
=------------------------------------------------------------------------------=
