
     Program PWSCF v.7.2 starts on 24Jul2023 at 10:30:30 

     This program is part of the open-source Quantum ESPRESSO suite
     for quantum simulation of materials; please cite
         "P. Giannozzi et al., J. Phys.:Condens. Matter 21 395502 (2009);
         "P. Giannozzi et al., J. Phys.:Condens. Matter 29 465901 (2017);
         "P. Giannozzi et al., J. Chem. Phys. 152 154105 (2020);
          URL http://www.quantum-espresso.org", 
     in publications or presentations arising from this work. More details at
     http://www.quantum-espresso.org/quote

     Parallel version (MPI), running on    20 processors

     MPI processes distributed on     1 nodes
     317544 MiB available memory on the printing compute node when the environment starts

     Waiting for input...
     Reading input from standard input

     Current dimensions of program PWSCF are:
     Max number of different atomic species (ntypx) = 10
     Max number of k-points (npk) = 120000
     Max angular momentum in pseudopotentials (lmaxx) =  4
     file Sc.pz-spn-kjpaw_psl.1.0.0.UPF: wavefunction(s)  3S 3P 3D renormalized

     K-points division:     npool     =       5
     R & G space division:  proc/nbgrp/npool/nimage =       4
     Subspace diagonalization in iterative solution of the eigenvalue problem:
     a serial algorithm will be used


     Parallelization info
     --------------------
     sticks:   dense  smooth     PW     G-vecs:    dense   smooth      PW
     Min         238     186     55                 9744     6682    1064
     Max         239     187     56                 9751     6691    1066
     Sum         955     745    223                38995    26741    4259

     Using Slab Decomposition



     bravais-lattice index     =            4
     lattice parameter (alat)  =       6.2531  a.u.
     unit-cell volume          =     337.5249 (a.u.)^3
     number of atoms/cell      =            2
     number of atomic types    =            1
     number of electrons       =        22.00
     number of Kohn-Sham states=           15
     kinetic-energy cutoff     =      70.0000  Ry
     charge density cutoff     =     360.0000  Ry
     scf convergence threshold =      1.0E-08
     mixing beta               =       0.7000
     number of iterations used =            8  plain     mixing
     energy convergence thresh.=      1.0E-04
     force convergence thresh. =      1.0E-03
     press convergence thresh. =      5.0E-01
     Exchange-correlation= SLA  PZ   NOGX NOGC
                           (   1   1   0   0   0   0   0)
     nstep                     =           50


     celldm(1)=   6.253104  celldm(2)=   0.000000  celldm(3)=   1.594000
     celldm(4)=   0.000000  celldm(5)=   0.000000  celldm(6)=   0.000000

     crystal axes: (cart. coord. in units of alat)
               a(1) = (   1.000000   0.000000   0.000000 )  
               a(2) = (  -0.500000   0.866025   0.000000 )  
               a(3) = (   0.000000   0.000000   1.594000 )  

     reciprocal axes: (cart. coord. in units 2 pi/alat)
               b(1) = (  1.000000  0.577350 -0.000000 )  
               b(2) = (  0.000000  1.154701  0.000000 )  
               b(3) = (  0.000000 -0.000000  0.627353 )  


     PseudoPot. # 1 for Sc read from file:
     ../../../Sc.pz-spn-kjpaw_psl.1.0.0.UPF
     MD5 check sum: 1f9095df0bb42a6568b4e9f256ff075f
     Pseudo is Projector augmented-wave + core cor, Zval = 11.0
     Generated using 'atomic' code by A. Dal Corso  v.7.1
     Shape of augmentation charge: PSQ
     Using radial grid of 1173 points,  6 beta functions with: 
                l(1) =   0
                l(2) =   0
                l(3) =   1
                l(4) =   1
                l(5) =   2
                l(6) =   2
     Q(r) pseudized with 0 coefficients 


     atomic species   valence    mass     pseudopotential
        Sc            11.00    44.59600     Sc( 1.00)

     24 Sym. Ops., with inversion, found (12 have fractional translation)



   Cartesian axes

     site n.     atom                  positions (alat units)
         1           Sc  tau(   1) = (   0.0000000   0.0000000   0.0000000  )
         2           Sc  tau(   2) = (   0.5000000   0.2886751   0.7970000  )

     number of k points=    48  Marzari-Vanderbilt smearing, width (Ry)=  0.0200
                       cart. coord. in units 2pi/alat
        k(    1) = (   0.0000000   0.0000000   0.0000000), wk =   0.0041152
        k(    2) = (   0.0000000   0.0000000   0.1045588), wk =   0.0082305
        k(    3) = (   0.0000000   0.0000000   0.2091175), wk =   0.0082305
        k(    4) = (   0.0000000   0.0000000  -0.3136763), wk =   0.0041152
        k(    5) = (   0.0000000   0.1283001   0.0000000), wk =   0.0246914
        k(    6) = (   0.0000000   0.1283001   0.1045588), wk =   0.0493827
        k(    7) = (   0.0000000   0.1283001   0.2091175), wk =   0.0493827
        k(    8) = (   0.0000000   0.1283001  -0.3136763), wk =   0.0246914
        k(    9) = (   0.0000000   0.2566001   0.0000000), wk =   0.0246914
        k(   10) = (   0.0000000   0.2566001   0.1045588), wk =   0.0493827
        k(   11) = (   0.0000000   0.2566001   0.2091175), wk =   0.0493827
        k(   12) = (   0.0000000   0.2566001  -0.3136763), wk =   0.0246914
        k(   13) = (   0.0000000   0.3849002   0.0000000), wk =   0.0246914
        k(   14) = (   0.0000000   0.3849002   0.1045588), wk =   0.0493827
        k(   15) = (   0.0000000   0.3849002   0.2091175), wk =   0.0493827
        k(   16) = (   0.0000000   0.3849002  -0.3136763), wk =   0.0246914
        k(   17) = (   0.0000000   0.5132002   0.0000000), wk =   0.0246914
        k(   18) = (   0.0000000   0.5132002   0.1045588), wk =   0.0493827
        k(   19) = (   0.0000000   0.5132002   0.2091175), wk =   0.0493827
        k(   20) = (   0.0000000   0.5132002  -0.3136763), wk =   0.0246914
        k(   21) = (   0.1111111   0.1924501   0.0000000), wk =   0.0246914
        k(   22) = (   0.1111111   0.1924501   0.1045588), wk =   0.0493827
        k(   23) = (   0.1111111   0.1924501   0.2091175), wk =   0.0493827
        k(   24) = (   0.1111111   0.1924501  -0.3136763), wk =   0.0246914
        k(   25) = (   0.1111111   0.3207501   0.0000000), wk =   0.0493827
        k(   26) = (   0.1111111   0.3207501   0.1045588), wk =   0.0987654
        k(   27) = (   0.1111111   0.3207501   0.2091175), wk =   0.0987654
        k(   28) = (   0.1111111   0.3207501  -0.3136763), wk =   0.0493827
        k(   29) = (   0.1111111   0.4490502   0.0000000), wk =   0.0493827
        k(   30) = (   0.1111111   0.4490502   0.1045588), wk =   0.0987654
        k(   31) = (   0.1111111   0.4490502   0.2091175), wk =   0.0987654
        k(   32) = (   0.1111111   0.4490502  -0.3136763), wk =   0.0493827
        k(   33) = (   0.1111111   0.5773503   0.0000000), wk =   0.0246914
        k(   34) = (   0.1111111   0.5773503   0.1045588), wk =   0.0493827
        k(   35) = (   0.1111111   0.5773503   0.2091175), wk =   0.0493827
        k(   36) = (   0.1111111   0.5773503  -0.3136763), wk =   0.0246914
        k(   37) = (   0.2222222   0.3849002   0.0000000), wk =   0.0246914
        k(   38) = (   0.2222222   0.3849002   0.1045588), wk =   0.0493827
        k(   39) = (   0.2222222   0.3849002   0.2091175), wk =   0.0493827
        k(   40) = (   0.2222222   0.3849002  -0.3136763), wk =   0.0246914
        k(   41) = (   0.2222222   0.5132002   0.0000000), wk =   0.0493827
        k(   42) = (   0.2222222   0.5132002   0.1045588), wk =   0.0987654
        k(   43) = (   0.2222222   0.5132002   0.2091175), wk =   0.0987654
        k(   44) = (   0.2222222   0.5132002  -0.3136763), wk =   0.0493827
        k(   45) = (   0.3333333   0.5773503   0.0000000), wk =   0.0082305
        k(   46) = (   0.3333333   0.5773503   0.1045588), wk =   0.0164609
        k(   47) = (   0.3333333   0.5773503   0.2091175), wk =   0.0164609
        k(   48) = (   0.3333333   0.5773503  -0.3136763), wk =   0.0082305

     Dense  grid:    38995 G-vectors     FFT dimensions: (  45,  45,  64)

     Smooth grid:    26741 G-vectors     FFT dimensions: (  36,  36,  54)

     Estimated max dynamical RAM per process >      17.90 MB

     Estimated total dynamical RAM >     319.90 MB

     Check: negative core charge=   -0.000008

     Initial potential from superposition of free atoms

     starting charge      21.9956, renormalised to      22.0000
     Starting wfcs are   20 randomized atomic wfcs
     Checking if some PAW data can be deallocated... 

     total cpu time spent up to now is        1.7 secs

     Self-consistent Calculation

     iteration #  1     ecut=    70.00 Ry     beta= 0.70
     Davidson diagonalization with overlap
     ethr =  1.00E-02,  avg # of iterations =  2.2

     Threshold (ethr) on eigenvalues was too large:
     Diagonalizing with lowered threshold

     Davidson diagonalization with overlap
     c_bands:  1 eigenvalues not converged
     c_bands:  1 eigenvalues not converged
     c_bands:  1 eigenvalues not converged
     ethr =  1.75E-05,  avg # of iterations = 17.1

     total cpu time spent up to now is        4.6 secs

     total energy              =    -306.86636627 Ry
     estimated scf accuracy    <       0.02009067 Ry

     iteration #  2     ecut=    70.00 Ry     beta= 0.70
     Davidson diagonalization with overlap
     ethr =  9.13E-05,  avg # of iterations =  4.2

     total cpu time spent up to now is        5.2 secs

     total energy              =    -306.87121916 Ry
     estimated scf accuracy    <       0.00160055 Ry

     iteration #  3     ecut=    70.00 Ry     beta= 0.70
     Davidson diagonalization with overlap
     ethr =  7.28E-06,  avg # of iterations =  8.3

     total cpu time spent up to now is        6.2 secs

     total energy              =    -306.87225239 Ry
     estimated scf accuracy    <       0.00026543 Ry

     iteration #  4     ecut=    70.00 Ry     beta= 0.70
     Davidson diagonalization with overlap
     ethr =  1.21E-06,  avg # of iterations =  7.6

     total cpu time spent up to now is        7.1 secs

     total energy              =    -306.87241762 Ry
     estimated scf accuracy    <       0.00013983 Ry

     iteration #  5     ecut=    70.00 Ry     beta= 0.70
     Davidson diagonalization with overlap
     ethr =  6.36E-07,  avg # of iterations =  5.9

     total cpu time spent up to now is        7.9 secs

     total energy              =    -306.87248593 Ry
     estimated scf accuracy    <       0.00001818 Ry

     iteration #  6     ecut=    70.00 Ry     beta= 0.70
     Davidson diagonalization with overlap
     ethr =  8.26E-08,  avg # of iterations =  7.7

     total cpu time spent up to now is        8.8 secs

     total energy              =    -306.87248580 Ry
     estimated scf accuracy    <       0.00001561 Ry

     iteration #  7     ecut=    70.00 Ry     beta= 0.70
     Davidson diagonalization with overlap
     ethr =  7.10E-08,  avg # of iterations =  4.6

     total cpu time spent up to now is        9.5 secs

     total energy              =    -306.87249110 Ry
     estimated scf accuracy    <       0.00000021 Ry

     iteration #  8     ecut=    70.00 Ry     beta= 0.70
     Davidson diagonalization with overlap
     c_bands:  1 eigenvalues not converged
     c_bands:  1 eigenvalues not converged
     ethr =  9.64E-10,  avg # of iterations = 16.8

     total cpu time spent up to now is       11.4 secs

     total energy              =    -306.87249264 Ry
     estimated scf accuracy    <       0.00000005 Ry

     iteration #  9     ecut=    70.00 Ry     beta= 0.70
     Davidson diagonalization with overlap
     c_bands:  1 eigenvalues not converged
     ethr =  2.30E-10,  avg # of iterations =  5.8

     total cpu time spent up to now is       12.1 secs

     total energy              =    -306.87249264 Ry
     estimated scf accuracy    <       0.00000002 Ry

     iteration # 10     ecut=    70.00 Ry     beta= 0.70
     Davidson diagonalization with overlap
     ethr =  7.56E-11,  avg # of iterations =  7.4

     total cpu time spent up to now is       13.0 secs

     End of self-consistent calculation

          k = 0.0000 0.0000 0.0000 (  3381 PWs)   bands (ev):

   -40.1392 -40.0749 -19.2241 -18.8909 -18.8909 -18.8325 -18.8325 -18.8151
     3.7530   7.1405   9.3011  10.3520  10.3520  10.4622  10.7554

          k = 0.0000 0.0000 0.1046 (  3345 PWs)   bands (ev):

   -40.1349 -40.0792 -19.1975 -18.8870 -18.8870 -18.8433 -18.8364 -18.8364
     3.9322   6.8682   9.2609  10.2859  10.2860  10.3483  10.6608

          k = 0.0000 0.0000 0.2091 (  3320 PWs)   bands (ev):

   -40.1232 -40.0910 -19.1243 -18.9199 -18.8763 -18.8763 -18.8471 -18.8471
     4.4483   6.1297   9.3575  10.0452  10.2316  10.2317  10.4620

          k = 0.0000 0.0000-0.3137 (  3326 PWs)   bands (ev):

   -40.1071 -40.1071 -19.0230 -19.0230 -18.8617 -18.8617 -18.8617 -18.8617
     5.2302   5.2302   9.6651   9.6652  10.2930  10.2930  10.2930

          k = 0.0000 0.1283 0.0000 (  3361 PWs)   bands (ev):

   -40.1334 -40.0725 -19.2085 -18.9228 -18.9014 -18.8656 -18.8371 -18.8217
     4.0203   7.3671   9.0910   9.9543  10.5457  10.5746  10.7595

          k = 0.0000 0.1283 0.1046 (  3361 PWs)   bands (ev):

   -40.1293 -40.0766 -19.1849 -18.9176 -18.8971 -18.8820 -18.8414 -18.8356
     4.1948   7.0930   9.0631   9.9662  10.4263  10.4455  10.5651

          k = 0.0000 0.1283 0.2091 (  3352 PWs)   bands (ev):

   -40.1182 -40.0878 -19.1199 -18.9418 -18.9022 -18.8854 -18.8590 -18.8532
     4.6981   6.3519   9.2008   9.9891  10.0440  10.3767  10.3989

          k = 0.0000 0.1283-0.3137 (  3342 PWs)   bands (ev):

   -40.1030 -40.1030 -19.0305 -19.0305 -18.8817 -18.8817 -18.8693 -18.8693
     5.4634   5.4634   9.5543   9.5543  10.1871  10.1872  10.4393

          k = 0.0000 0.2566 0.0000 (  3344 PWs)   bands (ev):

   -40.1181 -40.0670 -19.1659 -19.0043 -18.9472 -18.9269 -18.8497 -18.8417
     4.7752   7.9010   8.6817   9.3826  10.2430  10.5596  10.6484

          k = 0.0000 0.2566 0.1046 (  3346 PWs)   bands (ev):

   -40.1147 -40.0705 -19.1537 -18.9935 -18.9631 -18.9218 -18.8549 -18.8496
     4.9332   7.6301   8.6972   9.4303  10.2000  10.4102  10.6257

          k = 0.0000 0.2566 0.2091 (  3340 PWs)   bands (ev):

   -40.1054 -40.0799 -19.1190 -19.0134 -18.9546 -18.9077 -18.8742 -18.8691
     5.3893   6.9105   8.9155   9.5214   9.9251  10.2254  10.6547

          k = 0.0000 0.2566-0.3137 (  3344 PWs)   bands (ev):

   -40.0926 -40.0926 -19.0682 -19.0682 -18.9128 -18.9128 -18.8884 -18.8884
     6.0868   6.0868   9.2871   9.2872   9.9701   9.9702  10.7932

          k = 0.0000 0.3849 0.0000 (  3326 PWs)   bands (ev):

   -40.0992 -40.0623 -19.1078 -19.0982 -19.0361 -18.9547 -18.8740 -18.8650
     5.8646   8.1853   8.3338   8.9124  10.2123  10.2207  10.3559

          k = 0.0000 0.3849 0.1046 (  3337 PWs)   bands (ev):

   -40.0968 -40.0648 -19.1417 -19.0653 -19.0345 -18.9488 -18.8746 -18.8711
     5.9832   7.9491   8.4475   8.9813  10.0165  10.2984  10.4432

          k = 0.0000 0.3849 0.2091 (  3332 PWs)   bands (ev):

   -40.0900 -40.0716 -19.1532 -19.1001 -18.9760 -18.9325 -18.8876 -18.8867
     6.3237   7.4301   8.7084   9.0891   9.8520  10.1441  10.6952

          k = 0.0000 0.3849-0.3137 (  3338 PWs)   bands (ev):

   -40.0808 -40.0808 -19.1366 -19.1366 -18.9214 -18.9214 -18.9101 -18.9101
     6.8370   6.8370   9.0025   9.0025   9.8964   9.8964  11.0751

          k = 0.0000 0.5132 0.0000 (  3344 PWs)   bands (ev):

   -40.0848 -40.0613 -19.1599 -19.0924 -19.0564 -18.9723 -18.9085 -18.8755
     6.9597   7.9258   8.1473   8.6012  10.0162  10.1873  10.4802

          k = 0.0000 0.5132 0.1046 (  3339 PWs)   bands (ev):

   -40.0832 -40.0629 -19.1787 -19.1142 -19.0220 -18.9659 -18.9018 -18.8820
     6.9850   7.8146   8.3155   8.6372  10.0672  10.3006  10.3744

          k = 0.0000 0.5132 0.2091 (  3331 PWs)   bands (ev):

   -40.0789 -40.0672 -19.1960 -19.1555 -18.9650 -18.9483 -18.8999 -18.8991
     7.0891   7.5720   8.6232   8.8024  10.0702  10.1625  10.6302

          k = 0.0000 0.5132-0.3137 (  3342 PWs)   bands (ev):

   -40.0731 -40.0731 -19.1878 -19.1878 -18.9242 -18.9242 -18.9197 -18.9197
     7.2967   7.2967   8.8645   8.8645  10.0255  10.0256  11.1418

          k = 0.1111 0.1925 0.0000 (  3353 PWs)   bands (ev):

   -40.1228 -40.0686 -19.1794 -18.9706 -18.9458 -18.8993 -18.8518 -18.8351
     4.5329   7.7609   8.7998   9.5205  10.3409  10.5575  10.9509

          k = 0.1111 0.1925 0.1046 (  3355 PWs)   bands (ev):

   -40.1192 -40.0723 -19.1626 -18.9615 -18.9517 -18.9074 -18.8566 -18.8431
     4.6970   7.4861   8.7970   9.5631  10.3316  10.3775  10.6483

          k = 0.1111 0.1925 0.2091 (  3350 PWs)   bands (ev):

   -40.1093 -40.0822 -19.1164 -18.9896 -18.9371 -18.9072 -18.8694 -18.8653
     5.1711   6.7495   8.9937   9.6560   9.9571  10.2521  10.6034

          k = 0.1111 0.1925-0.3137 (  3336 PWs)   bands (ev):

   -40.0958 -40.0958 -19.0527 -19.0527 -18.9075 -18.9075 -18.8828 -18.8828
     5.8958   5.8958   9.3755   9.3755  10.0046  10.0047  10.6922

          k = 0.1111 0.3208 0.0000 (  3331 PWs)   bands (ev):

   -40.1057 -40.0636 -19.1285 -19.0509 -19.0161 -18.9403 -18.8737 -18.8617
     5.4671   8.2459   8.4711   9.0018  10.1465  10.1847  10.5589

          k = 0.1111 0.3208 0.1046 (  3330 PWs)   bands (ev):

   -40.1029 -40.0664 -19.1341 -19.0394 -19.0131 -18.9432 -18.8805 -18.8612
     5.6057   7.9793   8.5431   9.0635  10.0376  10.2543  10.5107

          k = 0.1111 0.3208 0.2091 (  3336 PWs)   bands (ev):

   -40.0952 -40.0741 -19.1301 -19.0668 -18.9700 -18.9374 -18.8956 -18.8723
     6.0052   7.3333   8.7966   9.1955   9.8234  10.0815  10.6660

          k = 0.1111 0.3208-0.3137 (  3340 PWs)   bands (ev):

   -40.0847 -40.0847 -19.1050 -19.1050 -18.9340 -18.9340 -18.8973 -18.8973
     6.6144   6.6144   9.1186   9.1186   9.8081   9.8082  10.9629

          k = 0.1111 0.4491 0.0000 (  3343 PWs)   bands (ev):

   -40.0885 -40.0612 -19.1281 -19.0707 -19.0699 -18.9777 -18.8981 -18.8914
     6.6044   8.2150   8.2501   8.6641   9.9753  10.2343  10.3719

          k = 0.1111 0.4491 0.1046 (  3330 PWs)   bands (ev):

   -40.0867 -40.0630 -19.1512 -19.0940 -19.0285 -18.9725 -18.9048 -18.8845
     6.6867   8.0241   8.3962   8.7594   9.9112  10.1740  10.4337

          k = 0.1111 0.4491 0.2091 (  3333 PWs)   bands (ev):

   -40.0817 -40.0680 -19.1694 -19.1307 -18.9849 -18.9483 -18.9195 -18.8822
     6.9232   7.6799   8.6640   8.9348   9.7789   9.9471  10.6818

          k = 0.1111 0.4491-0.3137 (  3336 PWs)   bands (ev):

   -40.0749 -40.0749 -19.1613 -19.1613 -18.9552 -18.9552 -18.9008 -18.9008
     7.2780   7.2780   8.9394   8.9394   9.7380   9.7380  11.0884

          k = 0.1111 0.5774 0.0000 (  3334 PWs)   bands (ev):

   -40.0802 -40.0617 -19.1586 -19.0909 -19.0382 -18.9922 -18.9221 -18.8983
     7.3846   7.9068   8.1755   8.4936   9.9526  10.0536  10.5661

          k = 0.1111 0.5774 0.1046 (  3342 PWs)   bands (ev):

   -40.0790 -40.0630 -19.1743 -19.1128 -19.0203 -18.9756 -18.9215 -18.8954
     7.3623   7.8696   8.3529   8.5270   9.9602  10.0244  10.5761

          k = 0.1111 0.5774 0.2091 (  3335 PWs)   bands (ev):

   -40.0756 -40.0664 -19.1911 -19.1542 -18.9927 -18.9374 -18.9350 -18.8884
     7.3866   7.7172   8.7055   8.7279   9.8302   9.8943  10.7784

          k = 0.1111 0.5774-0.3137 (  3342 PWs)   bands (ev):

   -40.0710 -40.0710 -19.1849 -19.1849 -18.9640 -18.9640 -18.9003 -18.9003
     7.5188   7.5188   8.9156   8.9156   9.7225   9.7225  11.1910

          k = 0.2222 0.3849 0.0000 (  3350 PWs)   bands (ev):

   -40.0900 -40.0612 -19.0901 -19.0761 -19.0731 -18.9746 -18.9166 -18.8944
     6.4805   8.3342   8.4957   8.5874   9.8756  10.2838  10.2882

          k = 0.2222 0.3849 0.1046 (  3329 PWs)   bands (ev):

   -40.0880 -40.0631 -19.1214 -19.0959 -19.0157 -18.9866 -18.9215 -18.8836
     6.5845   8.1887   8.5832   8.6535   9.8408  10.1354  10.3361

          k = 0.2222 0.3849 0.2091 (  3334 PWs)   bands (ev):

   -40.0828 -40.0684 -19.1442 -19.1168 -18.9909 -18.9712 -18.9234 -18.8776
     6.8809   7.8050   8.7989   8.8314   9.7008   9.8107  10.5497

          k = 0.2222 0.3849-0.3137 (  3348 PWs)   bands (ev):

   -40.0756 -40.0756 -19.1399 -19.1399 -18.9771 -18.9771 -18.8950 -18.8950
     7.3198   7.3198   8.9692   8.9692   9.5815   9.5815  10.9490

          k = 0.2222 0.5132 0.0000 (  3320 PWs)   bands (ev):

   -40.0769 -40.0624 -19.1279 -19.0726 -19.0244 -19.0207 -18.9459 -18.9330
     7.5044   8.2626   8.2925   8.4255   9.7894   9.9616  10.6182

          k = 0.2222 0.5132 0.1046 (  3337 PWs)   bands (ev):

   -40.0759 -40.0634 -19.1380 -19.0990 -19.0402 -18.9825 -18.9540 -18.9104
     7.5538   8.1825   8.3869   8.5645   9.7277   9.8109  10.6361

          k = 0.2222 0.5132 0.2091 (  3342 PWs)   bands (ev):

   -40.0733 -40.0660 -19.1566 -19.1338 -19.0367 -18.9861 -18.9217 -18.8881
     7.6908   8.0545   8.6299   8.8440   9.4512   9.5458  10.7549

          k = 0.2222 0.5132-0.3137 (  3340 PWs)   bands (ev):

   -40.0696 -40.0696 -19.1571 -19.1571 -19.0131 -19.0131 -18.8910 -18.8910
     7.8778   7.8778   8.9597   8.9597   9.2699   9.2699  11.0578

          k = 0.3333 0.5774 0.0000 (  3360 PWs)   bands (ev):

   -40.0676 -40.0676 -19.1146 -19.0532 -19.0532 -18.9861 -18.9765 -18.9765
     8.1590   8.1590   8.2629   8.3495   9.7613   9.7613  10.7735

          k = 0.3333 0.5774 0.1046 (  3336 PWs)   bands (ev):

   -40.0676 -40.0676 -19.1061 -19.0860 -19.0860 -18.9948 -18.9432 -18.9432
     8.2397   8.2397   8.2959   8.3811   9.6274   9.6274  10.7738

          k = 0.3333 0.5774 0.2091 (  3333 PWs)   bands (ev):

   -40.0676 -40.0676 -19.1252 -19.1252 -19.0828 -19.0185 -18.9031 -18.9031
     8.3742   8.4368   8.4578   8.4578   9.3161   9.3161  10.8357

          k = 0.3333 0.5774-0.3137 (  3336 PWs)   bands (ev):

   -40.0676 -40.0676 -19.1403 -19.1403 -19.0507 -19.0507 -18.8876 -18.8876
     8.4403   8.4403   8.6544   8.6544   9.0779   9.0779  11.0802

     the Fermi energy is     8.8143 ev

!    total energy              =    -306.87249266 Ry
     total all-electron energy =     -3050.013263 Ry
     estimated scf accuracy    <          3.3E-11 Ry
     smearing contrib. (-TS)   =      -0.00097771 Ry
     internal energy E=F+TS    =    -306.87151494 Ry

     The total energy is F=E-TS. E is the sum of the following terms:
     one-electron contribution =     -74.40516001 Ry
     hartree contribution      =      42.28442855 Ry
     xc contribution           =     -34.52768790 Ry
     ewald contribution        =    -126.46581261 Ry
     one-center paw contrib.   =    -113.75728297 Ry

     convergence has been achieved in  10 iterations

     Forces acting on atoms (cartesian axes, Ry/au):

     atom    1 type  1   force =     0.00000000    0.00000000    0.00000000
     atom    2 type  1   force =    -0.00000000   -0.00000000    0.00000000
     The non-local contrib.  to forces
     atom    1 type  1   force =     0.00000000    0.00000000    0.00000000
     atom    2 type  1   force =     0.00000000   -0.00000000    0.00000000
     The ionic contribution  to forces
     atom    1 type  1   force =     0.00000000   -0.00000000    0.00000000
     atom    2 type  1   force =    -0.00000000    0.00000000    0.00000000
     The local contribution  to forces
     atom    1 type  1   force =     0.00000000    0.00000000    0.00000000
     atom    2 type  1   force =    -0.00000000    0.00000000    0.00000000
     The core correction contribution to forces
     atom    1 type  1   force =    -0.00000000   -0.00000000    0.00000000
     atom    2 type  1   force =     0.00000000   -0.00000000    0.00000000
     The Hubbard contrib.    to forces
     atom    1 type  1   force =     0.00000000    0.00000000    0.00000000
     atom    2 type  1   force =     0.00000000    0.00000000    0.00000000
     The SCF correction term to forces
     atom    1 type  1   force =     0.00000000    0.00000000   -0.00000000
     atom    2 type  1   force =     0.00000000    0.00000000    0.00000000

     Total force =     0.000000     Total SCF correction =     0.000000


     Computing stress (Cartesian axis) and pressure

          total   stress  (Ry/bohr**3)                   (kbar)     P=      -57.47
  -0.00035032   0.00000000   0.00000000          -51.53        0.00        0.00
   0.00000000  -0.00035032  -0.00000000            0.00      -51.53       -0.00
   0.00000000  -0.00000000  -0.00047148            0.00       -0.00      -69.36


     BFGS Geometry Optimization
     Energy error            =      0.0E+00 Ry
     Gradient error          =      1.1E-27 Ry/Bohr
     Cell gradient error     =      6.9E+01 kbar

     number of scf cycles    =   1
     number of bfgs steps    =   0

     enthalpy           new  =    -306.8724926574 Ry

     new trust radius        =       0.0433099409 bohr
     new conv_thr            =       0.0000000100 Ry

     new unit-cell volume =    327.72970 a.u.^3 (    48.56453 Ang^3 )
     density =      3.04969 g/cm^3

CELL_PARAMETERS (alat=  6.25310370)
   0.991242025   0.000000000   0.000000000
  -0.495621013   0.858440775  -0.000000000
   0.000000000  -0.000000000   1.575211462

ATOMIC_POSITIONS (crystal)
Sc            0.0000000000        0.0000000000        0.0000000000
Sc            0.6666666667        0.3333333333        0.5000000000



     Writing config-only to output data dir sc_vcrelax.out/scandium.save/
     NEW-OLD atomic charge density approx. for the potential

     Check: negative core charge=   -0.000009
     extrapolated charge   21.34259, renormalised to   22.00000

     total cpu time spent up to now is       16.6 secs

     Self-consistent Calculation

     iteration #  1     ecut=    70.00 Ry     beta= 0.70
     Davidson diagonalization with overlap
     c_bands:  1 eigenvalues not converged
     c_bands:  2 eigenvalues not converged
     c_bands:  1 eigenvalues not converged
     ethr =  1.00E-06,  avg # of iterations = 19.9

     total cpu time spent up to now is       19.2 secs

     total energy              =    -306.75359896 Ry
     estimated scf accuracy    <       0.08830465 Ry

     iteration #  2     ecut=    70.00 Ry     beta= 0.70
     Davidson diagonalization with overlap
     ethr =  4.01E-04,  avg # of iterations =  7.4

     total cpu time spent up to now is       20.2 secs

     total energy              =    -306.87930584 Ry
     estimated scf accuracy    <       0.14953331 Ry

     iteration #  3     ecut=    70.00 Ry     beta= 0.70
     Davidson diagonalization with overlap
     ethr =  4.01E-04,  avg # of iterations =  1.3

     total cpu time spent up to now is       20.7 secs

     total energy              =    -306.87414619 Ry
     estimated scf accuracy    <       0.04487401 Ry

     iteration #  4     ecut=    70.00 Ry     beta= 0.70
     Davidson diagonalization with overlap
     ethr =  2.04E-04,  avg # of iterations =  2.5

     total cpu time spent up to now is       21.2 secs

     total energy              =    -306.87361264 Ry
     estimated scf accuracy    <       0.01911206 Ry

     iteration #  5     ecut=    70.00 Ry     beta= 0.70
     Davidson diagonalization with overlap
     ethr =  8.69E-05,  avg # of iterations =  2.3

     total cpu time spent up to now is       21.8 secs

     total energy              =    -306.87565108 Ry
     estimated scf accuracy    <       0.00980118 Ry

     iteration #  6     ecut=    70.00 Ry     beta= 0.70
     Davidson diagonalization with overlap
     ethr =  4.46E-05,  avg # of iterations =  3.3

     total cpu time spent up to now is       22.4 secs

     total energy              =    -306.87871604 Ry
     estimated scf accuracy    <       0.00878131 Ry

     iteration #  7     ecut=    70.00 Ry     beta= 0.70
     Davidson diagonalization with overlap
     ethr =  3.99E-05,  avg # of iterations =  1.4

     total cpu time spent up to now is       22.9 secs

     total energy              =    -306.88215696 Ry
     estimated scf accuracy    <       0.01150191 Ry

     iteration #  8     ecut=    70.00 Ry     beta= 0.70
     Davidson diagonalization with overlap
     ethr =  3.99E-05,  avg # of iterations =  1.2

     total cpu time spent up to now is       23.4 secs

     total energy              =    -306.87033282 Ry
     estimated scf accuracy    <       0.01689165 Ry

     iteration #  9     ecut=    70.00 Ry     beta= 0.70
     Davidson diagonalization with overlap
     ethr =  3.99E-05,  avg # of iterations =  5.4

     total cpu time spent up to now is       24.2 secs

     total energy              =    -306.87715528 Ry
     estimated scf accuracy    <       0.00030882 Ry

     iteration # 10     ecut=    70.00 Ry     beta= 0.70
     Davidson diagonalization with overlap
     ethr =  1.40E-06,  avg # of iterations = 14.2

     total cpu time spent up to now is       25.9 secs

     total energy              =    -306.87745997 Ry
     estimated scf accuracy    <       0.00865323 Ry

     iteration # 11     ecut=    70.00 Ry     beta= 0.70
     Davidson diagonalization with overlap
     ethr =  1.40E-06,  avg # of iterations =  4.6

     total cpu time spent up to now is       26.6 secs

     total energy              =    -306.87878287 Ry
     estimated scf accuracy    <       0.00480065 Ry

     iteration # 12     ecut=    70.00 Ry     beta= 0.70
     Davidson diagonalization with overlap
     ethr =  1.40E-06,  avg # of iterations =  2.1

     total cpu time spent up to now is       27.2 secs

     total energy              =    -306.87430140 Ry
     estimated scf accuracy    <       0.00696173 Ry

     iteration # 13     ecut=    70.00 Ry     beta= 0.70
     Davidson diagonalization with overlap
     ethr =  1.40E-06,  avg # of iterations = 10.2

     total cpu time spent up to now is       28.5 secs

     total energy              =    -306.87594161 Ry
     estimated scf accuracy    <       0.00002031 Ry

     iteration # 14     ecut=    70.00 Ry     beta= 0.70
     Davidson diagonalization with overlap
     ethr =  9.23E-08,  avg # of iterations =  9.2

     total cpu time spent up to now is       29.4 secs

     total energy              =    -306.87802816 Ry
     estimated scf accuracy    <       0.00010185 Ry

     iteration # 15     ecut=    70.00 Ry     beta= 0.70
     Davidson diagonalization with overlap
     c_bands:  1 eigenvalues not converged
     ethr =  9.23E-08,  avg # of iterations = 17.5

     total cpu time spent up to now is       31.6 secs

     total energy              =    -306.87923493 Ry
     estimated scf accuracy    <       0.00971125 Ry

     iteration # 16     ecut=    70.00 Ry     beta= 0.70
     Davidson diagonalization with overlap
     ethr =  9.23E-08,  avg # of iterations =  4.3

     total cpu time spent up to now is       32.3 secs

     total energy              =    -306.87508418 Ry
     estimated scf accuracy    <       0.00859354 Ry

     iteration # 17     ecut=    70.00 Ry     beta= 0.70
     Davidson diagonalization with overlap
     ethr =  9.23E-08,  avg # of iterations = 16.0

     total cpu time spent up to now is       34.2 secs

     total energy              =    -306.87573794 Ry
     estimated scf accuracy    <       0.00054630 Ry

     iteration # 18     ecut=    70.00 Ry     beta= 0.70
     Davidson diagonalization with overlap
     ethr =  9.23E-08,  avg # of iterations = 12.5

     total cpu time spent up to now is       35.5 secs

     total energy              =    -306.87595140 Ry
     estimated scf accuracy    <       0.00009474 Ry

     iteration # 19     ecut=    70.00 Ry     beta= 0.70
     Davidson diagonalization with overlap
     ethr =  9.23E-08,  avg # of iterations =  2.4

     total cpu time spent up to now is       36.1 secs

     total energy              =    -306.87593643 Ry
     estimated scf accuracy    <       0.00004411 Ry

     iteration # 20     ecut=    70.00 Ry     beta= 0.70
     Davidson diagonalization with overlap
     ethr =  9.23E-08,  avg # of iterations =  4.9

     total cpu time spent up to now is       36.8 secs

     total energy              =    -306.87594038 Ry
     estimated scf accuracy    <       0.00000456 Ry

     iteration # 21     ecut=    70.00 Ry     beta= 0.70
     Davidson diagonalization with overlap
     ethr =  2.07E-08,  avg # of iterations =  7.3

     total cpu time spent up to now is       37.6 secs

     total energy              =    -306.87594332 Ry
     estimated scf accuracy    <       0.00000040 Ry

     iteration # 22     ecut=    70.00 Ry     beta= 0.70
     Davidson diagonalization with overlap
     ethr =  1.81E-09,  avg # of iterations =  7.4

     total cpu time spent up to now is       38.5 secs

     End of self-consistent calculation

          k = 0.0000 0.0000 0.0000 (  3381 PWs)   bands (ev):

   -39.7316 -39.6577 -18.8432 -18.4733 -18.4733 -18.4082 -18.4082 -18.3885
     4.0325   7.4428   9.7141  10.7198  10.7199  10.8550  11.1455

          k = 0.0000 0.0000 0.1058 (  3345 PWs)   bands (ev):

   -39.7266 -39.6627 -18.8138 -18.4690 -18.4690 -18.4199 -18.4126 -18.4126
     4.2173   7.1850   9.6514  10.6491  10.6491  10.7355  11.0448

          k = 0.0000 0.0000 0.2116 (  3320 PWs)   bands (ev):

   -39.7132 -39.6762 -18.7326 -18.5053 -18.4571 -18.4571 -18.4245 -18.4245
     4.7483   6.4586   9.7203  10.4192  10.5911  10.5911  10.8341

          k = 0.0000-0.0000-0.3174 (  3326 PWs)   bands (ev):

   -39.6947 -39.6947 -18.6199 -18.6199 -18.4408 -18.4408 -18.4408 -18.4408
     5.5487   5.5487  10.0263  10.0263  10.6556  10.6557  10.6557

          k = 0.0000 0.1294 0.0000 (  3361 PWs)   bands (ev):

   -39.7250 -39.6551 -18.8260 -18.5083 -18.4849 -18.4446 -18.4132 -18.3958
     4.3063   7.6736   9.4844  10.3081  10.9205  10.9603  11.1603

          k = 0.0000 0.1294 0.1058 (  3361 PWs)   bands (ev):

   -39.7203 -39.6598 -18.7998 -18.5025 -18.4801 -18.4631 -18.4180 -18.4112
     4.4860   7.4152   9.4330  10.3198  10.8088  10.8134  10.9465

          k = 0.0000 0.1294 0.2116 (  3352 PWs)   bands (ev):

   -39.7076 -39.6727 -18.7278 -18.5299 -18.4853 -18.4670 -18.4371 -18.4311
     5.0032   6.6855   9.5473  10.3442  10.4105  10.7406  10.7753

          k = 0.0000 0.1294-0.3174 (  3342 PWs)   bands (ev):

   -39.6902 -39.6902 -18.6285 -18.6285 -18.4624 -18.4624 -18.4491 -18.4491
     5.7863   5.7863   9.9033   9.9033  10.5524  10.5524  10.8068

          k = 0.0000 0.2589 0.0000 (  3344 PWs)   bands (ev):

   -39.7078 -39.6491 -18.7787 -18.5979 -18.5341 -18.5130 -18.4267 -18.4182
     5.0775   8.2132   9.0364   9.7155  10.6217  10.9387  11.0188

          k = 0.0000 0.2589 0.1058 (  3346 PWs)   bands (ev):

   -39.7038 -39.6530 -18.7653 -18.5859 -18.5520 -18.5073 -18.4325 -18.4266
     5.2392   7.9621   9.0300   9.7649  10.5727  10.7928  10.9953

          k = 0.0000 0.2589 0.2116 (  3340 PWs)   bands (ev):

   -39.6931 -39.6638 -18.7268 -18.6089 -18.5424 -18.4916 -18.4534 -18.4484
     5.7057   7.2504   9.2382   9.8587  10.2873  10.6034  11.0263

          k = 0.0000 0.2589-0.3174 (  3344 PWs)   bands (ev):

   -39.6785 -39.6785 -18.6702 -18.6702 -18.4960 -18.4960 -18.4700 -18.4700
     6.4166   6.4166   9.6187   9.6188  10.3350  10.3350  11.1725

          k = 0.0000 0.3883 0.0000 (  3326 PWs)   bands (ev):

   -39.6864 -39.6439 -18.7143 -18.7010 -18.6314 -18.5436 -18.4542 -18.4433
     6.1832   8.4850   8.6533   9.2443  10.5980  10.5995  10.7146

          k = 0.0000 0.3883 0.1058 (  3337 PWs)   bands (ev):

   -39.6835 -39.6468 -18.7509 -18.6649 -18.6306 -18.5369 -18.4544 -18.4501
     6.3023   8.2665   8.7552   9.3151  10.3881  10.6862  10.8058

          k = 0.0000 0.3883 0.2116 (  3332 PWs)   bands (ev):

   -39.6758 -39.6546 -18.7636 -18.7039 -18.5660 -18.5187 -18.4685 -18.4673
     6.6441   7.7528   9.0240   9.4263  10.2167  10.5251  11.0690

          k = 0.0000 0.3883-0.3174 (  3338 PWs)   bands (ev):

   -39.6652 -39.6652 -18.7449 -18.7449 -18.5054 -18.5054 -18.4937 -18.4937
     7.1591   7.1591   9.3331   9.3331  10.2651  10.2651  11.4659

          k = 0.0000 0.5177 0.0000 (  3344 PWs)   bands (ev):

   -39.6700 -39.6430 -18.7687 -18.6929 -18.6571 -18.5629 -18.4927 -18.4546
     7.2798   8.2188   8.4459   8.9429  10.3965  10.5396  10.8768

          k = 0.0000 0.5177 0.1058 (  3339 PWs)   bands (ev):

   -39.6682 -39.6448 -18.7903 -18.7177 -18.6181 -18.5557 -18.4847 -18.4619
     7.2972   8.1131   8.6251   8.9714  10.4553  10.6580  10.7655

          k = 0.0000 0.5177 0.2116 (  3331 PWs)   bands (ev):

   -39.6632 -39.6497 -18.8100 -18.7644 -18.5541 -18.5360 -18.4819 -18.4810
     7.3894   7.8722   8.9471   9.1413  10.4567  10.5533  11.0024

          k = 0.0000 0.5177-0.3174 (  3342 PWs)   bands (ev):

   -39.6565 -39.6565 -18.8008 -18.8008 -18.5090 -18.5090 -18.5036 -18.5036
     7.5936   7.5936   9.2023   9.2023  10.4131  10.4131  11.5372

          k = 0.1121 0.1942 0.0000 (  3353 PWs)   bands (ev):

   -39.7131 -39.6508 -18.7937 -18.5607 -18.5336 -18.4818 -18.4291 -18.4108
     4.8303   8.0732   9.1659   9.8566  10.7198  10.9278  11.2404

          k = 0.1121 0.1942 0.1058 (  3355 PWs)   bands (ev):

   -39.7089 -39.6550 -18.7751 -18.5506 -18.5401 -18.4912 -18.4345 -18.4194
     4.9988   7.8171   9.1397   9.9007  10.7026  10.7601  11.0221

          k = 0.1121 0.1942 0.2116 (  3350 PWs)   bands (ev):

   -39.6976 -39.6664 -18.7239 -18.5826 -18.5233 -18.4910 -18.4488 -18.4438
     5.4847   7.0894   9.3216   9.9959  10.3205  10.6284  10.9754

          k = 0.1121 0.1942-0.3174 (  3336 PWs)   bands (ev):

   -39.6820 -39.6820 -18.6531 -18.6531 -18.4904 -18.4904 -18.4638 -18.4638
     6.2247   6.2247   9.7106   9.7106  10.3686  10.3686  11.0684

          k = 0.1121 0.3236 0.0000 (  3331 PWs)   bands (ev):

   -39.6937 -39.6453 -18.7373 -18.6490 -18.6102 -18.5272 -18.4529 -18.4405
     5.7819   8.5582   8.8035   9.3243  10.5269  10.5458  10.9366

          k = 0.1121 0.3236 0.1058 (  3330 PWs)   bands (ev):

   -39.6904 -39.6486 -18.7433 -18.6366 -18.6068 -18.5307 -18.4606 -18.4395
     5.9227   8.3135   8.8567   9.3886  10.4003  10.6360  10.8816

          k = 0.1121 0.3236 0.2116 (  3336 PWs)   bands (ev):

   -39.6816 -39.6574 -18.7385 -18.6675 -18.5592 -18.5241 -18.4774 -18.4513
     6.3284   7.6704   9.1138   9.5263  10.1799  10.4544  11.0415

          k = 0.1121 0.3236-0.3174 (  3340 PWs)   bands (ev):

   -39.6695 -39.6695 -18.7104 -18.7104 -18.5197 -18.5197 -18.4791 -18.4791
     6.9453   6.9453   9.4473   9.4473  10.1669  10.1669  11.3501

          k = 0.1121 0.4530 0.0000 (  3343 PWs)   bands (ev):

   -39.6742 -39.6428 -18.7338 -18.6731 -18.6684 -18.5686 -18.4812 -18.4721
     6.9300   8.5121   8.5555   8.9962  10.3381  10.6019  10.7635

          k = 0.1121 0.4530 0.1058 (  3330 PWs)   bands (ev):

   -39.6721 -39.6449 -18.7603 -18.6962 -18.6248 -18.5629 -18.4874 -18.4651
     7.0099   8.3311   8.7001   9.0931  10.2779  10.5442  10.8172

          k = 0.1121 0.4530 0.2116 (  3333 PWs)   bands (ev):

   -39.6664 -39.6507 -18.7809 -18.7375 -18.5764 -18.5356 -18.5036 -18.4622
     7.2408   7.9903   8.9816   9.2766  10.1433  10.3156  11.0648

          k = 0.1121 0.4530-0.3174 (  3336 PWs)   bands (ev):

   -39.6585 -39.6585 -18.7719 -18.7719 -18.5433 -18.5433 -18.4826 -18.4826
     7.5909   7.5909   9.2766   9.2766  10.1004  10.1004  11.4847

          k = 0.1121 0.5825 0.0000 (  3334 PWs)   bands (ev):

   -39.6648 -39.6436 -18.7673 -18.6912 -18.6370 -18.5847 -18.5079 -18.4796
     7.7043   8.2099   8.4703   8.8301  10.3301  10.4042  10.9647

          k = 0.1121 0.5825 0.1058 (  3342 PWs)   bands (ev):

   -39.6634 -39.6450 -18.7853 -18.7162 -18.6163 -18.5662 -18.5061 -18.4768
     7.6694   8.1769   8.6675   8.8542  10.3432  10.3797  10.9679

          k = 0.1121 0.5825 0.2116 (  3335 PWs)   bands (ev):

   -39.6595 -39.6489 -18.8045 -18.7630 -18.5852 -18.5233 -18.5208 -18.4690
     7.6818   8.0218   9.0303   9.0717  10.1870  10.2810  11.1680

          k = 0.1121 0.5825-0.3174 (  3342 PWs)   bands (ev):

   -39.6542 -39.6542 -18.7975 -18.7975 -18.5530 -18.5530 -18.4821 -18.4821
     7.8147   7.8147   9.2587   9.2587  10.0922  10.0922  11.5944

          k = 0.2242 0.3883 0.0000 (  3350 PWs)   bands (ev):

   -39.6758 -39.6428 -18.6921 -18.6791 -18.6727 -18.5646 -18.4998 -18.4769
     6.8092   8.6441   8.8110   8.8989  10.2283  10.6627  10.6728

          k = 0.2242 0.3883 0.1058 (  3329 PWs)   bands (ev):

   -39.6736 -39.6450 -18.7281 -18.6986 -18.6100 -18.5784 -18.5053 -18.4643
     6.9131   8.5015   8.9042   8.9677  10.1955  10.5046  10.7208

          k = 0.2242 0.3883 0.2116 (  3334 PWs)   bands (ev):

   -39.6676 -39.6511 -18.7534 -18.7224 -18.5832 -18.5604 -18.5078 -18.4571
     7.2087   8.1257   9.1289   9.1543  10.0549  10.1678  10.9317

          k = 0.2242 0.3883-0.3174 (  3348 PWs)   bands (ev):

   -39.6593 -39.6593 -18.7485 -18.7485 -18.5674 -18.5674 -18.4761 -18.4761
     7.6454   7.6454   9.3034   9.3034   9.9298   9.9298  11.3415

          k = 0.2242 0.5177 0.0000 (  3320 PWs)   bands (ev):

   -39.6610 -39.6443 -18.7338 -18.6717 -18.6216 -18.6154 -18.5317 -18.5200
     7.8350   8.5734   8.5860   8.7490  10.1445  10.3288  11.0172

          k = 0.2242 0.5177 0.1058 (  3337 PWs)   bands (ev):

   -39.6599 -39.6455 -18.7453 -18.7020 -18.6378 -18.5736 -18.5412 -18.4939
     7.8797   8.4892   8.6949   8.8894  10.0865  10.1717  11.0323

          k = 0.2242 0.5177 0.2116 (  3342 PWs)   bands (ev):

   -39.6568 -39.6485 -18.7665 -18.7411 -18.6336 -18.5766 -18.5059 -18.4686
     8.0072   8.3626   8.9529   9.1836   9.8054   9.8986  11.1489

          k = 0.2242 0.5177-0.3174 (  3340 PWs)   bands (ev):

   -39.6527 -39.6527 -18.7672 -18.7672 -18.6070 -18.6070 -18.4716 -18.4716
     8.1877   8.1877   9.3061   9.3061   9.6128   9.6128  11.4589

          k = 0.3363 0.5825 0.0000 (  3360 PWs)   bands (ev):

   -39.6504 -39.6504 -18.7196 -18.6508 -18.6508 -18.5753 -18.5683 -18.5683
     8.4839   8.4839   8.5834   8.6369  10.1215  10.1215  11.1779

          k = 0.3363 0.5825 0.1058 (  3336 PWs)   bands (ev):

   -39.6504 -39.6504 -18.7101 -18.6882 -18.6882 -18.5851 -18.5304 -18.5304
     8.5654   8.5654   8.6166   8.6731   9.9854   9.9854  11.1758

          k = 0.3363 0.5825 0.2116 (  3333 PWs)   bands (ev):

   -39.6503 -39.6503 -18.7323 -18.7323 -18.6839 -18.6118 -18.4852 -18.4852
     8.6941   8.7404   8.7845   8.7845   9.6705   9.6705  11.2343

          k = 0.3363 0.5825-0.3174 (  3336 PWs)   bands (ev):

   -39.6503 -39.6503 -18.7492 -18.7492 -18.6480 -18.6480 -18.4678 -18.4678
     8.7550   8.7550   8.9779   8.9779   9.4345   9.4345  11.4836

     the Fermi energy is     9.1462 ev

!    total energy              =    -306.87594378 Ry
     total all-electron energy =     -3050.016715 Ry
     estimated scf accuracy    <          2.0E-09 Ry
     smearing contrib. (-TS)   =      -0.00095690 Ry
     internal energy E=F+TS    =    -306.87498688 Ry

     The total energy is F=E-TS. E is the sum of the following terms:
     one-electron contribution =     -72.51891047 Ry
     hartree contribution      =      41.67725749 Ry
     xc contribution           =     -34.56571483 Ry
     ewald contribution        =    -127.71053772 Ry
     one-center paw contrib.   =    -113.75708135 Ry

     convergence has been achieved in  22 iterations

     Forces acting on atoms (cartesian axes, Ry/au):

     atom    1 type  1   force =     0.00000000    0.00000000    0.00000000
     atom    2 type  1   force =    -0.00000000    0.00000000    0.00000000
     The non-local contrib.  to forces
     atom    1 type  1   force =    -0.00000000   -0.00000000   -0.00000000
     atom    2 type  1   force =     0.00000000    0.00000000    0.00000000
     The ionic contribution  to forces
     atom    1 type  1   force =     0.00000000   -0.00000000    0.00000000
     atom    2 type  1   force =    -0.00000000    0.00000000   -0.00000000
     The local contribution  to forces
     atom    1 type  1   force =     0.00000000    0.00000000    0.00000000
     atom    2 type  1   force =    -0.00000000    0.00000000    0.00000000
     The core correction contribution to forces
     atom    1 type  1   force =    -0.00000000   -0.00000000    0.00000000
     atom    2 type  1   force =     0.00000000   -0.00000000    0.00000000
     The Hubbard contrib.    to forces
     atom    1 type  1   force =     0.00000000    0.00000000    0.00000000
     atom    2 type  1   force =     0.00000000    0.00000000    0.00000000
     The SCF correction term to forces
     atom    1 type  1   force =     0.00000000    0.00000000    0.00000000
     atom    2 type  1   force =     0.00000000   -0.00000000    0.00000000

     Total force =     0.000000     Total SCF correction =     0.000000


     Computing stress (Cartesian axis) and pressure

          total   stress  (Ry/bohr**3)                   (kbar)     P=      -43.79
  -0.00025828  -0.00000000   0.00000000          -37.99       -0.00        0.00
   0.00000000  -0.00025828  -0.00000000            0.00      -37.99       -0.00
   0.00000000  -0.00000000  -0.00037652            0.00       -0.00      -55.39

     Energy error            =      3.5E-03 Ry
     Gradient error          =      1.6E-27 Ry/Bohr
     Cell gradient error     =      5.5E+01 kbar

     number of scf cycles    =   2
     number of bfgs steps    =   1

     enthalpy           old  =    -306.8724926574 Ry
     enthalpy           new  =    -306.8759437827 Ry

     CASE: enthalpy          _new < enthalpy          _old

     new trust radius        =       0.0647788574 bohr
     new conv_thr            =            1.0E-10 Ry

     new unit-cell volume =    314.05841 a.u.^3 (    46.53866 Ang^3 )
     density =      3.18245 g/cm^3

CELL_PARAMETERS (alat=  6.25310370)
   0.979145597   0.000000000   0.000000000
  -0.489572798   0.847964961  -0.000000000
   0.000000000  -0.000000000   1.547028655

ATOMIC_POSITIONS (crystal)
Sc            0.0000000000        0.0000000000        0.0000000000
Sc            0.6666666667        0.3333333333        0.5000000000



     Writing config-only to output data dir sc_vcrelax.out/scandium.save/
     NEW-OLD atomic charge density approx. for the potential

     Check: negative core charge=   -0.000011
     extrapolated charge   21.04251, renormalised to   22.00000

     total cpu time spent up to now is       42.2 secs

     Self-consistent Calculation

     iteration #  1     ecut=    70.00 Ry     beta= 0.70
     Davidson diagonalization with overlap
     c_bands:  1 eigenvalues not converged
     c_bands:  4 eigenvalues not converged
     c_bands:  3 eigenvalues not converged
     c_bands:  1 eigenvalues not converged
     c_bands:  5 eigenvalues not converged
     c_bands:  2 eigenvalues not converged
     ethr =  1.00E-06,  avg # of iterations = 21.7

     total cpu time spent up to now is       45.4 secs

     total energy              =    -306.61703544 Ry
     estimated scf accuracy    <       0.19087279 Ry

     iteration #  2     ecut=    70.00 Ry     beta= 0.70
     Davidson diagonalization with overlap
     ethr =  8.68E-04,  avg # of iterations =  7.2

     total cpu time spent up to now is       46.4 secs

     total energy              =    -306.88663639 Ry
     estimated scf accuracy    <       0.30527104 Ry

     iteration #  3     ecut=    70.00 Ry     beta= 0.70
     Davidson diagonalization with overlap
     ethr =  8.68E-04,  avg # of iterations =  1.2

     total cpu time spent up to now is       46.9 secs

     total energy              =    -306.87606937 Ry
     estimated scf accuracy    <       0.09033825 Ry

     iteration #  4     ecut=    70.00 Ry     beta= 0.70
     Davidson diagonalization with overlap
     ethr =  4.11E-04,  avg # of iterations =  2.4

     total cpu time spent up to now is       47.5 secs

     total energy              =    -306.87407181 Ry
     estimated scf accuracy    <       0.04000068 Ry

     iteration #  5     ecut=    70.00 Ry     beta= 0.70
     Davidson diagonalization with overlap
     ethr =  1.82E-04,  avg # of iterations =  2.4

     total cpu time spent up to now is       48.0 secs

     total energy              =    -306.87757627 Ry
     estimated scf accuracy    <       0.01993154 Ry

     iteration #  6     ecut=    70.00 Ry     beta= 0.70
     Davidson diagonalization with overlap
     ethr =  9.06E-05,  avg # of iterations =  3.6

     total cpu time spent up to now is       48.6 secs

     total energy              =    -306.88125481 Ry
     estimated scf accuracy    <       0.01564468 Ry

     iteration #  7     ecut=    70.00 Ry     beta= 0.70
     Davidson diagonalization with overlap
     ethr =  7.11E-05,  avg # of iterations =  2.1

     total cpu time spent up to now is       49.1 secs

     total energy              =    -306.88737088 Ry
     estimated scf accuracy    <       0.01575173 Ry

     iteration #  8     ecut=    70.00 Ry     beta= 0.70
     Davidson diagonalization with overlap
     ethr =  7.11E-05,  avg # of iterations =  1.2

     total cpu time spent up to now is       49.6 secs

     total energy              =    -306.90149625 Ry
     estimated scf accuracy    <       0.02387284 Ry

     iteration #  9     ecut=    70.00 Ry     beta= 0.70
     Davidson diagonalization with overlap
     ethr =  7.11E-05,  avg # of iterations =  1.5

     total cpu time spent up to now is       50.1 secs

     total energy              =    -306.86208958 Ry
     estimated scf accuracy    <       0.04921440 Ry

     iteration # 10     ecut=    70.00 Ry     beta= 0.70
     Davidson diagonalization with overlap
     ethr =  7.11E-05,  avg # of iterations =  6.1

     total cpu time spent up to now is       51.0 secs

     total energy              =    -306.88892011 Ry
     estimated scf accuracy    <       0.00820151 Ry

     iteration # 11     ecut=    70.00 Ry     beta= 0.70
     Davidson diagonalization with overlap
     ethr =  3.73E-05,  avg # of iterations =  4.5

     total cpu time spent up to now is       51.8 secs

     total energy              =    -306.89222014 Ry
     estimated scf accuracy    <       0.02510477 Ry

     iteration # 12     ecut=    70.00 Ry     beta= 0.70
     Davidson diagonalization with overlap
     ethr =  3.73E-05,  avg # of iterations =  2.0

     total cpu time spent up to now is       52.3 secs

     total energy              =    -306.89035768 Ry
     estimated scf accuracy    <       0.03093044 Ry

     iteration # 13     ecut=    70.00 Ry     beta= 0.70
     Davidson diagonalization with overlap
     ethr =  3.73E-05,  avg # of iterations =  1.3

     total cpu time spent up to now is       52.8 secs

     total energy              =    -306.88706668 Ry
     estimated scf accuracy    <       0.02708613 Ry

     iteration # 14     ecut=    70.00 Ry     beta= 0.70
     Davidson diagonalization with overlap
     ethr =  3.73E-05,  avg # of iterations =  1.0

     total cpu time spent up to now is       53.3 secs

     total energy              =    -306.89916049 Ry
     estimated scf accuracy    <       0.02101591 Ry

     iteration # 15     ecut=    70.00 Ry     beta= 0.70
     Davidson diagonalization with overlap
     ethr =  3.73E-05,  avg # of iterations =  2.6

     total cpu time spent up to now is       53.9 secs

     total energy              =    -306.88031415 Ry
     estimated scf accuracy    <       0.04546106 Ry

     iteration # 16     ecut=    70.00 Ry     beta= 0.70
     Davidson diagonalization with overlap
     ethr =  3.73E-05,  avg # of iterations =  3.0

     total cpu time spent up to now is       54.5 secs

     total energy              =    -306.87757860 Ry
     estimated scf accuracy    <       0.01261501 Ry

     iteration # 17     ecut=    70.00 Ry     beta= 0.70
     Davidson diagonalization with overlap
     ethr =  3.73E-05,  avg # of iterations =  3.0

     total cpu time spent up to now is       55.1 secs

     total energy              =    -306.87700275 Ry
     estimated scf accuracy    <       0.00321657 Ry

     iteration # 18     ecut=    70.00 Ry     beta= 0.70
     Davidson diagonalization with overlap
     ethr =  1.46E-05,  avg # of iterations =  5.8

     total cpu time spent up to now is       55.9 secs

     total energy              =    -306.87887697 Ry
     estimated scf accuracy    <       0.00002384 Ry

     iteration # 19     ecut=    70.00 Ry     beta= 0.70
     Davidson diagonalization with overlap
     ethr =  1.08E-07,  avg # of iterations = 14.3

     total cpu time spent up to now is       57.8 secs

     total energy              =    -306.87917556 Ry
     estimated scf accuracy    <       0.00022302 Ry

     iteration # 20     ecut=    70.00 Ry     beta= 0.70
     Davidson diagonalization with overlap
     ethr =  1.08E-07,  avg # of iterations =  2.1

     total cpu time spent up to now is       58.4 secs

     total energy              =    -306.87912544 Ry
     estimated scf accuracy    <       0.00013266 Ry

     iteration # 21     ecut=    70.00 Ry     beta= 0.70
     Davidson diagonalization with overlap
     ethr =  1.08E-07,  avg # of iterations =  6.4

     total cpu time spent up to now is       59.2 secs

     total energy              =    -306.87913281 Ry
     estimated scf accuracy    <       0.00001722 Ry

     iteration # 22     ecut=    70.00 Ry     beta= 0.70
     Davidson diagonalization with overlap
     ethr =  7.83E-08,  avg # of iterations =  6.4

     total cpu time spent up to now is       60.1 secs

     total energy              =    -306.87915588 Ry
     estimated scf accuracy    <       0.00001530 Ry

     iteration # 23     ecut=    70.00 Ry     beta= 0.70
     Davidson diagonalization with overlap
     ethr =  6.95E-08,  avg # of iterations =  2.3

     total cpu time spent up to now is       60.6 secs

     total energy              =    -306.87917524 Ry
     estimated scf accuracy    <       0.00003481 Ry

     iteration # 24     ecut=    70.00 Ry     beta= 0.70
     Davidson diagonalization with overlap
     ethr =  6.95E-08,  avg # of iterations =  5.2

     total cpu time spent up to now is       61.3 secs

     total energy              =    -306.87916456 Ry
     estimated scf accuracy    <       0.00009627 Ry

     iteration # 25     ecut=    70.00 Ry     beta= 0.70
     Davidson diagonalization with overlap
     ethr =  6.95E-08,  avg # of iterations =  1.3

     total cpu time spent up to now is       61.8 secs

     total energy              =    -306.87915821 Ry
     estimated scf accuracy    <       0.00006984 Ry

     iteration # 26     ecut=    70.00 Ry     beta= 0.70
     Davidson diagonalization with overlap
     ethr =  6.95E-08,  avg # of iterations =  1.8

     total cpu time spent up to now is       62.3 secs

     total energy              =    -306.87915729 Ry
     estimated scf accuracy    <       0.00005360 Ry

     iteration # 27     ecut=    70.00 Ry     beta= 0.70
     Davidson diagonalization with overlap
     ethr =  6.95E-08,  avg # of iterations =  1.1

     total cpu time spent up to now is       62.8 secs

     total energy              =    -306.87912180 Ry
     estimated scf accuracy    <       0.00004949 Ry

     iteration # 28     ecut=    70.00 Ry     beta= 0.70
     Davidson diagonalization with overlap
     ethr =  6.95E-08,  avg # of iterations =  6.8

     total cpu time spent up to now is       63.6 secs

     total energy              =    -306.87913940 Ry
     estimated scf accuracy    <       0.00000322 Ry

     iteration # 29     ecut=    70.00 Ry     beta= 0.70
     Davidson diagonalization with overlap
     ethr =  1.46E-08,  avg # of iterations =  3.5

     total cpu time spent up to now is       64.3 secs

     total energy              =    -306.87914012 Ry
     estimated scf accuracy    <       0.00000013 Ry

     iteration # 30     ecut=    70.00 Ry     beta= 0.70
     Davidson diagonalization with overlap
     ethr =  5.95E-10,  avg # of iterations = 10.0

     total cpu time spent up to now is       65.5 secs

     total energy              =    -306.87914042 Ry
     estimated scf accuracy    <          1.6E-10 Ry

     iteration # 31     ecut=    70.00 Ry     beta= 0.70
     Davidson diagonalization with overlap
     c_bands:  1 eigenvalues not converged
     c_bands:  1 eigenvalues not converged
     c_bands:  3 eigenvalues not converged
     c_bands:  2 eigenvalues not converged
     c_bands:  2 eigenvalues not converged
     c_bands:  1 eigenvalues not converged
     c_bands:  3 eigenvalues not converged
     ethr =  7.22E-13,  avg # of iterations = 24.5

     total cpu time spent up to now is       69.0 secs

     total energy              =    -306.87914045 Ry
     estimated scf accuracy    <       0.00000001 Ry

     iteration # 32     ecut=    70.00 Ry     beta= 0.70
     Davidson diagonalization with overlap
     ethr =  7.22E-13,  avg # of iterations = 11.8

     total cpu time spent up to now is       70.2 secs

     total energy              =    -306.87914043 Ry
     estimated scf accuracy    <       0.00000003 Ry

     iteration # 33     ecut=    70.00 Ry     beta= 0.70
     Davidson diagonalization with overlap
     ethr =  7.22E-13,  avg # of iterations = 16.1

     total cpu time spent up to now is       72.1 secs

     total energy              =    -306.87914044 Ry
     estimated scf accuracy    <          3.3E-10 Ry

     iteration # 34     ecut=    70.00 Ry     beta= 0.70
     Davidson diagonalization with overlap
     ethr =  7.22E-13,  avg # of iterations =  2.0

     total cpu time spent up to now is       72.6 secs

     End of self-consistent calculation

          k = 0.0000 0.0000 0.0000 (  3381 PWs)   bands (ev):

   -39.1280 -39.0375 -18.2829 -17.8537 -17.8537 -17.7772 -17.7772 -17.7523
     4.4567   7.8944  10.3503  11.2645  11.2645  11.4481  11.7262

          k = 0.0000 0.0000 0.1077 (  3345 PWs)   bands (ev):

   -39.1220 -39.0436 -18.2487 -17.8486 -17.8486 -17.7892 -17.7823 -17.7823
     4.6504   7.6602  10.2501  11.1852  11.1852  11.3200  11.6151

          k = 0.0000 0.0000 0.2155 (  3320 PWs)   bands (ev):

   -39.1055 -39.0603 -18.1542 -17.8891 -17.8346 -17.8346 -17.7963 -17.7963
     5.2049   6.9574  10.2700  10.9825  11.1207  11.1207  11.3844

          k = 0.0000-0.0000-0.3232 (  3326 PWs)   bands (ev):

   -39.0829 -39.0829 -18.0230 -18.0230 -17.8155 -17.8155 -17.8155 -17.8155
     6.0339   6.0339  10.5703  10.5703  11.1904  11.1904  11.1904

          k = 0.0000 0.1310 0.0000 (  3361 PWs)   bands (ev):

   -39.1202 -39.0346 -18.2629 -17.8936 -17.8670 -17.8186 -17.7825 -17.7611
     4.7400   8.1309  10.0867  10.8326  11.4755  11.5357  11.7641

          k = 0.0000 0.1310 0.1077 (  3361 PWs)   bands (ev):

   -39.1145 -39.0404 -18.2325 -17.8867 -17.8614 -17.8404 -17.7882 -17.7789
     4.9280   7.8984   9.9963  10.8429  11.3559  11.3821  11.5195

          k = 0.0000 0.1310 0.2155 (  3352 PWs)   bands (ev):

   -39.0989 -39.0561 -18.1488 -17.9184 -17.8663 -17.8460 -17.8094 -17.8037
     5.4673   7.1914  10.0680  10.8667  10.9627  11.2763  11.3365

          k = 0.0000 0.1310-0.3232 (  3342 PWs)   bands (ev):

   -39.0776 -39.0776 -18.0334 -18.0334 -17.8393 -17.8393 -17.8249 -17.8249
     6.2775   6.2775  10.4248  10.4248  11.0952  11.0953  11.3484

          k = 0.0000 0.2621 0.0000 (  3344 PWs)   bands (ev):

   -39.0997 -39.0278 -18.2081 -17.9956 -17.9203 -17.8992 -17.7974 -17.7875
     5.5350   8.6770   9.5742  10.2085  11.1889  11.5032  11.5626

          k = 0.0000 0.2621 0.1077 (  3346 PWs)   bands (ev):

   -39.0949 -39.0327 -18.1926 -17.9816 -17.9418 -17.8925 -17.8043 -17.7966
     5.7027   8.4594   9.5308  10.2603  11.1297  11.3662  11.5379

          k = 0.0000 0.2621 0.2155 (  3340 PWs)   bands (ev):

   -39.0818 -39.0459 -18.1479 -18.0096 -17.9302 -17.8739 -17.8270 -17.8230
     6.1853   7.7649   9.7186  10.3582  10.8296  11.1701  11.5724

          k = 0.0000 0.2621-0.3232 (  3344 PWs)   bands (ev):

   -39.0639 -39.0639 -18.0818 -18.0818 -17.8761 -17.8761 -17.8485 -17.8485
     6.9169   6.9169  10.1115  10.1115  10.8807  10.8807  11.7310

          k = 0.0000 0.3931 0.0000 (  3326 PWs)   bands (ev):

   -39.0741 -39.0222 -18.1333 -18.1130 -18.0305 -17.9341 -17.8299 -17.8157
     6.6634   8.9289   9.1337   9.7375  11.1684  11.1782  11.2411

          k = 0.0000 0.3931 0.1077 (  3337 PWs)   bands (ev):

   -39.0707 -39.0257 -18.1741 -18.0717 -18.0315 -17.9263 -17.8292 -17.8237
     6.7829   8.7415   9.2138   9.8116  10.9456  11.2698  11.3383

          k = 0.0000 0.3931 0.2155 (  3332 PWs)   bands (ev):

   -39.0612 -39.0352 -18.1887 -18.1177 -17.9569 -17.9048 -17.8456 -17.8429
     7.1261   8.2376   9.4939   9.9294  10.7633  11.0977  11.6187

          k = 0.0000 0.3931-0.3232 (  3338 PWs)   bands (ev):

   -39.0482 -39.0482 -18.1665 -18.1665 -17.8866 -17.8866 -17.8752 -17.8752
     7.6433   7.6433   9.8268   9.8268  10.8177  10.8177  12.0419

          k = 0.0000 0.5241 0.0000 (  3344 PWs)   bands (ev):

   -39.0545 -39.0215 -18.1901 -18.0999 -18.0668 -17.9562 -17.8751 -17.8282
     7.7589   8.6525   8.8929   9.4545  10.9703  11.0566  11.4741

          k = 0.0000 0.5241 0.1077 (  3339 PWs)   bands (ev):

   -39.0523 -39.0237 -18.2167 -18.1302 -18.0195 -17.9477 -17.8646 -17.8369
     7.7629   8.5573   9.0893   9.4704  11.0409  11.1829  11.3539

          k = 0.0000 0.5241 0.2155 (  3331 PWs)   bands (ev):

   -39.0462 -39.0297 -18.2404 -18.1862 -17.9438 -17.9245 -17.8605 -17.8588
     7.8369   8.3211   9.4308   9.6493  11.0345  11.1459  11.5504

          k = 0.0000 0.5241-0.3232 (  3342 PWs)   bands (ev):

   -39.0380 -39.0380 -18.2295 -18.2295 -17.8926 -17.8926 -17.8846 -17.8846
     8.0368   8.0368   9.7076   9.7076  10.9965  10.9965  12.1216

          k = 0.1135 0.1965 0.0000 (  3353 PWs)   bands (ev):

   -39.1060 -39.0297 -18.2255 -17.9529 -17.9222 -17.8616 -17.8004 -17.7787
     5.2810   8.5381   9.7225  10.3540  11.2862  11.4738  11.7956

          k = 0.1135 0.1965 0.1077 (  3355 PWs)   bands (ev):

   -39.1009 -39.0349 -18.2040 -17.9409 -17.9295 -17.8734 -17.8068 -17.7883
     5.4563   8.3130   9.6573  10.4002  11.2543  11.3338  11.5727

          k = 0.1135 0.1965 0.2155 (  3350 PWs)   bands (ev):

   -39.0871 -39.0489 -18.1446 -17.9796 -17.9087 -17.8731 -17.8237 -17.8162
     5.9606   7.6045   9.8105  10.4984  10.8644  11.1913  11.5233

          k = 0.1135 0.1965-0.3232 (  3336 PWs)   bands (ev):

   -39.0680 -39.0680 -18.0622 -18.0622 -17.8704 -17.8704 -17.8411 -17.8411
     6.7242   6.7242  10.2086  10.2086  10.9122  10.9122  11.6230

          k = 0.1135 0.3276 0.0000 (  3331 PWs)   bands (ev):

   -39.0829 -39.0236 -18.1600 -18.0535 -18.0081 -17.9142 -17.8270 -17.8138
     6.2573   9.0209   9.3046   9.8022  11.0806  11.0979  11.4972

          k = 0.1135 0.3276 0.1077 (  3330 PWs)   bands (ev):

   -39.0789 -39.0276 -18.1667 -18.0396 -18.0040 -17.9189 -17.8361 -17.8117
     6.4015   8.8154   9.3238   9.8708  10.9403  11.2091  11.4292

          k = 0.1135 0.3276 0.2155 (  3336 PWs)   bands (ev):

   -39.0681 -39.0385 -18.1608 -18.0765 -17.9491 -17.9108 -17.8559 -17.8245
     6.8164   8.1791   9.5848  10.0179  10.7126  11.0132  11.5959

          k = 0.1135 0.3276-0.3232 (  3340 PWs)   bands (ev):

   -39.0533 -39.0533 -18.1275 -18.1275 -17.9043 -17.9043 -17.8573 -17.8573
     7.4451   7.4451   9.9365   9.9365  10.7031  10.7031  11.9218

          k = 0.1135 0.4586 0.0000 (  3343 PWs)   bands (ev):

   -39.0596 -39.0212 -18.1504 -18.0854 -18.0728 -17.9622 -17.8615 -17.8483
     7.4192   8.9523   9.0126   9.4906  10.8765  11.1508  11.3529

          k = 0.1135 0.4586 0.1077 (  3330 PWs)   bands (ev):

   -39.0570 -39.0237 -18.1831 -18.1068 -18.0264 -17.9557 -17.8668 -17.8412
     7.4945   8.7900   9.1523   9.5900  10.8253  11.0955  11.3922

          k = 0.1135 0.4586 0.2155 (  3333 PWs)   bands (ev):

   -39.0500 -39.0308 -18.2076 -18.1560 -17.9704 -17.9226 -17.8855 -17.8369
     7.7160   8.4552   9.4550   9.7876  10.6881  10.8680  11.6333

          k = 0.1135 0.4586-0.3232 (  3336 PWs)   bands (ev):

   -39.0404 -39.0404 -18.1969 -18.1969 -17.9318 -17.9318 -17.8605 -17.8605
     8.0588   8.0588   9.7814   9.7814  10.6430  10.6430  12.0721

          k = 0.1135 0.5896 0.0000 (  3334 PWs)   bands (ev):

   -39.0483 -39.0223 -18.1886 -18.0981 -18.0433 -17.9808 -17.8929 -17.8566
     8.1822   8.6573   8.9103   9.3353  10.8994  10.9206  11.5650

          k = 0.1135 0.5896 0.1077 (  3342 PWs)   bands (ev):

   -39.0465 -39.0240 -18.2107 -18.1286 -18.0181 -17.9590 -17.8888 -17.8542
     8.1264   8.6326   9.1396   9.3435  10.9052  10.9208  11.5555

          k = 0.1135 0.5896 0.2155 (  3335 PWs)   bands (ev):

   -39.0417 -39.0288 -18.2339 -18.1848 -17.9810 -17.9079 -17.9052 -17.8449
     8.1213   8.4765   9.5139   9.5884  10.7185  10.8642  11.7472

          k = 0.1135 0.5896-0.3232 (  3342 PWs)   bands (ev):

   -39.0353 -39.0353 -18.2258 -18.2258 -17.9429 -17.9429 -17.8597 -17.8597
     8.2564   8.2564   9.7712   9.7712  10.6471  10.6471  12.1934

          k = 0.2270 0.3931 0.0000 (  3350 PWs)   bands (ev):

   -39.0616 -39.0211 -18.1029 -18.0923 -18.0792 -17.9563 -17.8799 -17.8565
     7.3039   9.1074   9.2782   9.3610  10.7523  11.2215  11.2571

          k = 0.2270 0.3931 0.1077 (  3329 PWs)   bands (ev):

   -39.0588 -39.0238 -18.1473 -18.1106 -18.0082 -17.9734 -17.8866 -17.8406
     7.4072   8.9687   9.3817   9.4342  10.7237  11.0547  11.2977

          k = 0.2270 0.3931 0.2155 (  3334 PWs)   bands (ev):

   -39.0514 -39.0312 -18.1767 -18.1392 -17.9789 -17.9500 -17.8901 -17.8309
     7.7011   8.6056   9.6217   9.6349  10.5838  10.7004  11.5006

          k = 0.2270 0.3931-0.3232 (  3348 PWs)   bands (ev):

   -39.0413 -39.0413 -18.1705 -18.1705 -17.9595 -17.9595 -17.8527 -17.8527
     8.1338   8.1338   9.8031   9.8031  10.4492  10.4492  11.9241

          k = 0.2270 0.5241 0.0000 (  3320 PWs)   bands (ev):

   -39.0437 -39.0233 -18.1508 -18.0772 -18.0255 -18.0146 -17.9158 -17.9070
     8.3295   9.0220   9.0338   9.2318  10.6731  10.8797  11.6171

          k = 0.2270 0.5241 0.1077 (  3337 PWs)   bands (ev):

   -39.0423 -39.0247 -18.1649 -18.1143 -18.0419 -17.9666 -17.9276 -17.8748
     8.3659   8.9459   9.1532   9.3735  10.6208  10.7139  11.6266

          k = 0.2270 0.5241 0.2155 (  3342 PWs)   bands (ev):

   -39.0386 -39.0284 -18.1908 -18.1607 -18.0366 -17.9685 -17.8874 -17.8442
     8.4783   8.8233   9.4344   9.6901  10.3338  10.4287  11.7371

          k = 0.2270 0.5241-0.3232 (  3340 PWs)   bands (ev):

   -39.0335 -39.0335 -18.1917 -18.1917 -18.0047 -18.0047 -17.8472 -17.8472
     8.6500   8.6500   9.8237   9.8237  10.1260  10.1260  12.0563

          k = 0.3404 0.5896 0.0000 (  3360 PWs)   bands (ev):

   -39.0308 -39.0308 -18.1355 -18.0541 -18.0541 -17.9645 -17.9634 -17.9634
     8.9675   8.9675   9.0615   9.0616  10.6610  10.6610  11.7861

          k = 0.3404 0.5896 0.1077 (  3336 PWs)   bands (ev):

   -39.0308 -39.0308 -18.1243 -18.0996 -18.0996 -17.9761 -17.9172 -17.9172
     9.0502   9.0502   9.0951   9.1055  10.5218  10.5218  11.7796

          k = 0.3404 0.5896 0.2155 (  3333 PWs)   bands (ev):

   -39.0308 -39.0308 -18.1520 -18.1520 -18.0933 -18.0078 -17.8632 -17.8632
     9.1715   9.1916   9.2710   9.2710  10.2020  10.2020  11.8310

          k = 0.3404 0.5896-0.3232 (  3336 PWs)   bands (ev):

   -39.0308 -39.0308 -18.1720 -18.1720 -18.0507 -18.0507 -17.8426 -17.8426
     9.2243   9.2243   9.4597   9.4597   9.9694   9.9694  12.0860

     the Fermi energy is     9.6418 ev

!    total energy              =    -306.87914044 Ry
     total all-electron energy =     -3050.019911 Ry
     estimated scf accuracy    <          7.0E-11 Ry
     smearing contrib. (-TS)   =      -0.00092832 Ry
     internal energy E=F+TS    =    -306.87821212 Ry

     The total energy is F=E-TS. E is the sum of the following terms:
     one-electron contribution =     -69.76946110 Ry
     hartree contribution      =      40.80183362 Ry
     xc contribution           =     -34.62280081 Ry
     ewald contribution        =    -129.53107958 Ry
     one-center paw contrib.   =    -113.75670426 Ry

     convergence has been achieved in  34 iterations

     Forces acting on atoms (cartesian axes, Ry/au):

     atom    1 type  1   force =    -0.00000000    0.00000000    0.00000000
     atom    2 type  1   force =    -0.00000000   -0.00000000   -0.00000000
     The non-local contrib.  to forces
     atom    1 type  1   force =     0.00000000    0.00000000   -0.00000000
     atom    2 type  1   force =    -0.00000000    0.00000000    0.00000000
     The ionic contribution  to forces
     atom    1 type  1   force =     0.00000000   -0.00000000    0.00000000
     atom    2 type  1   force =    -0.00000000    0.00000000   -0.00000000
     The local contribution  to forces
     atom    1 type  1   force =     0.00000000    0.00000000    0.00000000
     atom    2 type  1   force =    -0.00000000    0.00000000    0.00000000
     The core correction contribution to forces
     atom    1 type  1   force =    -0.00000000   -0.00000000   -0.00000000
     atom    2 type  1   force =     0.00000000   -0.00000000    0.00000000
     The Hubbard contrib.    to forces
     atom    1 type  1   force =     0.00000000    0.00000000    0.00000000
     atom    2 type  1   force =     0.00000000    0.00000000    0.00000000
     The SCF correction term to forces
     atom    1 type  1   force =    -0.00000000    0.00000000    0.00000000
     atom    2 type  1   force =     0.00000000   -0.00000000    0.00000000

     Total force =     0.000000     Total SCF correction =     0.000000


     Computing stress (Cartesian axis) and pressure

          total   stress  (Ry/bohr**3)                   (kbar)     P=      -21.50
  -0.00011103   0.00000000   0.00000000          -16.33        0.00        0.00
   0.00000000  -0.00011103  -0.00000000            0.00      -16.33       -0.00
   0.00000000  -0.00000000  -0.00021649            0.00       -0.00      -31.85

     Energy error            =      3.2E-03 Ry
     Gradient error          =      1.6E-27 Ry/Bohr
     Cell gradient error     =      3.2E+01 kbar

     number of scf cycles    =   3
     number of bfgs steps    =   2

     enthalpy           old  =    -306.8759437827 Ry
     enthalpy           new  =    -306.8791404388 Ry

     CASE: enthalpy          _new < enthalpy          _old

     new trust radius        =       0.0676612402 bohr
     new conv_thr            =            1.0E-10 Ry

     new unit-cell volume =    301.24627 a.u.^3 (    44.64009 Ang^3 )
     density =      3.31780 g/cm^3

CELL_PARAMETERS (alat=  6.25310370)
   0.968251789   0.000000000   0.000000000
  -0.484125894   0.838530646  -0.000000000
   0.000000000  -0.000000000   1.517495958

ATOMIC_POSITIONS (crystal)
Sc            0.0000000000        0.0000000000       -0.0000000000
Sc            0.6666666667        0.3333333333        0.5000000000



     Writing config-only to output data dir sc_vcrelax.out/scandium.save/
     NEW-OLD atomic charge density approx. for the potential

     Check: negative core charge=   -0.000012
     extrapolated charge   21.06452, renormalised to   22.00000

     total cpu time spent up to now is       76.3 secs

     Self-consistent Calculation

     iteration #  1     ecut=    70.00 Ry     beta= 0.70
     Davidson diagonalization with overlap
     c_bands:  1 eigenvalues not converged
     c_bands:  4 eigenvalues not converged
     c_bands:  4 eigenvalues not converged
     c_bands:  4 eigenvalues not converged
     c_bands:  2 eigenvalues not converged
     ethr =  1.00E-06,  avg # of iterations = 24.4

     total cpu time spent up to now is       79.9 secs

     total energy              =    -306.64994172 Ry
     estimated scf accuracy    <       0.16517807 Ry

     iteration #  2     ecut=    70.00 Ry     beta= 0.70
     Davidson diagonalization with overlap
     ethr =  7.51E-04,  avg # of iterations =  7.0

     total cpu time spent up to now is       80.9 secs

     total energy              =    -306.88692295 Ry
     estimated scf accuracy    <       0.25883668 Ry

     iteration #  3     ecut=    70.00 Ry     beta= 0.70
     Davidson diagonalization with overlap
     ethr =  7.51E-04,  avg # of iterations =  1.1

     total cpu time spent up to now is       81.4 secs

     total energy              =    -306.87672520 Ry
     estimated scf accuracy    <       0.07745264 Ry

     iteration #  4     ecut=    70.00 Ry     beta= 0.70
     Davidson diagonalization with overlap
     ethr =  3.52E-04,  avg # of iterations =  2.5

     total cpu time spent up to now is       82.1 secs

     total energy              =    -306.87482772 Ry
     estimated scf accuracy    <       0.03361396 Ry

     iteration #  5     ecut=    70.00 Ry     beta= 0.70
     Davidson diagonalization with overlap
     ethr =  1.53E-04,  avg # of iterations =  2.5

     total cpu time spent up to now is       82.6 secs

     total energy              =    -306.87798075 Ry
     estimated scf accuracy    <       0.01561369 Ry

     iteration #  6     ecut=    70.00 Ry     beta= 0.70
     Davidson diagonalization with overlap
     ethr =  7.10E-05,  avg # of iterations =  3.8

     total cpu time spent up to now is       83.2 secs

     total energy              =    -306.88129659 Ry
     estimated scf accuracy    <       0.01118034 Ry

     iteration #  7     ecut=    70.00 Ry     beta= 0.70
     Davidson diagonalization with overlap
     ethr =  5.08E-05,  avg # of iterations =  2.2

     total cpu time spent up to now is       83.8 secs

     total energy              =    -306.88557334 Ry
     estimated scf accuracy    <       0.01077247 Ry

     iteration #  8     ecut=    70.00 Ry     beta= 0.70
     Davidson diagonalization with overlap
     ethr =  4.90E-05,  avg # of iterations =  1.3

     total cpu time spent up to now is       84.3 secs

     total energy              =    -306.89551773 Ry
     estimated scf accuracy    <       0.01609978 Ry

     iteration #  9     ecut=    70.00 Ry     beta= 0.70
     Davidson diagonalization with overlap
     ethr =  4.90E-05,  avg # of iterations =  1.6

     total cpu time spent up to now is       84.8 secs

     total energy              =    -306.87698308 Ry
     estimated scf accuracy    <       0.03383262 Ry

     iteration # 10     ecut=    70.00 Ry     beta= 0.70
     Davidson diagonalization with overlap
     ethr =  4.90E-05,  avg # of iterations =  3.6

     total cpu time spent up to now is       85.4 secs

     total energy              =    -306.87861280 Ry
     estimated scf accuracy    <       0.00397037 Ry

     iteration # 11     ecut=    70.00 Ry     beta= 0.70
     Davidson diagonalization with overlap
     ethr =  1.80E-05,  avg # of iterations = 10.4

     total cpu time spent up to now is       86.8 secs

     total energy              =    -306.89269137 Ry
     estimated scf accuracy    <       0.03807785 Ry

     iteration # 12     ecut=    70.00 Ry     beta= 0.70
     Davidson diagonalization with overlap
     ethr =  1.80E-05,  avg # of iterations =  1.2

     total cpu time spent up to now is       87.3 secs

     total energy              =    -306.89209789 Ry
     estimated scf accuracy    <       0.03252244 Ry

     iteration # 13     ecut=    70.00 Ry     beta= 0.70
     Davidson diagonalization with overlap
     ethr =  1.80E-05,  avg # of iterations =  1.0

     total cpu time spent up to now is       87.8 secs

     total energy              =    -306.89501942 Ry
     estimated scf accuracy    <       0.03100506 Ry

     iteration # 14     ecut=    70.00 Ry     beta= 0.70
     Davidson diagonalization with overlap
     ethr =  1.80E-05,  avg # of iterations =  1.1

     total cpu time spent up to now is       88.3 secs

     total energy              =    -306.89672156 Ry
     estimated scf accuracy    <       0.03621130 Ry

     iteration # 15     ecut=    70.00 Ry     beta= 0.70
     Davidson diagonalization with overlap
     ethr =  1.80E-05,  avg # of iterations =  1.1

     total cpu time spent up to now is       88.8 secs

     total energy              =    -306.88547218 Ry
     estimated scf accuracy    <       0.03958473 Ry

     iteration # 16     ecut=    70.00 Ry     beta= 0.70
     Davidson diagonalization with overlap
     ethr =  1.80E-05,  avg # of iterations =  2.5

     total cpu time spent up to now is       89.3 secs

     total energy              =    -306.89057584 Ry
     estimated scf accuracy    <       0.02023753 Ry

     iteration # 17     ecut=    70.00 Ry     beta= 0.70
     Davidson diagonalization with overlap
     ethr =  1.80E-05,  avg # of iterations =  1.0

     total cpu time spent up to now is       89.8 secs

     total energy              =    -306.89186900 Ry
     estimated scf accuracy    <       0.02711199 Ry

     iteration # 18     ecut=    70.00 Ry     beta= 0.70
     Davidson diagonalization with overlap
     ethr =  1.80E-05,  avg # of iterations =  1.2

     total cpu time spent up to now is       90.3 secs

     total energy              =    -306.87367084 Ry
     estimated scf accuracy    <       0.02953322 Ry

     iteration # 19     ecut=    70.00 Ry     beta= 0.70
     Davidson diagonalization with overlap
     ethr =  1.80E-05,  avg # of iterations =  7.1

     total cpu time spent up to now is       91.3 secs

     total energy              =    -306.87980302 Ry
     estimated scf accuracy    <       0.00005089 Ry

     iteration # 20     ecut=    70.00 Ry     beta= 0.70
     Davidson diagonalization with overlap
     ethr =  2.31E-07,  avg # of iterations = 13.1

     total cpu time spent up to now is       92.8 secs

     total energy              =    -306.88006846 Ry
     estimated scf accuracy    <       0.00005768 Ry

     iteration # 21     ecut=    70.00 Ry     beta= 0.70
     Davidson diagonalization with overlap
     ethr =  2.31E-07,  avg # of iterations =  4.3

     total cpu time spent up to now is       93.5 secs

     total energy              =    -306.88010013 Ry
     estimated scf accuracy    <       0.00000468 Ry

     iteration # 22     ecut=    70.00 Ry     beta= 0.70
     Davidson diagonalization with overlap
     ethr =  2.13E-08,  avg # of iterations =  8.7

     total cpu time spent up to now is       94.6 secs

     total energy              =    -306.88009572 Ry
     estimated scf accuracy    <       0.00004814 Ry

     iteration # 23     ecut=    70.00 Ry     beta= 0.70
     Davidson diagonalization with overlap
     ethr =  2.13E-08,  avg # of iterations =  4.2

     total cpu time spent up to now is       95.3 secs

     total energy              =    -306.88008943 Ry
     estimated scf accuracy    <       0.00001984 Ry

     iteration # 24     ecut=    70.00 Ry     beta= 0.70
     Davidson diagonalization with overlap
     ethr =  2.13E-08,  avg # of iterations =  5.3

     total cpu time spent up to now is       96.0 secs

     total energy              =    -306.88008886 Ry
     estimated scf accuracy    <       0.00000378 Ry

     iteration # 25     ecut=    70.00 Ry     beta= 0.70
     Davidson diagonalization with overlap
     ethr =  1.72E-08,  avg # of iterations =  5.3

     total cpu time spent up to now is       96.8 secs

     total energy              =    -306.88009054 Ry
     estimated scf accuracy    <       0.00000018 Ry

     iteration # 26     ecut=    70.00 Ry     beta= 0.70
     Davidson diagonalization with overlap
     ethr =  7.97E-10,  avg # of iterations =  9.6

     total cpu time spent up to now is       97.8 secs

     total energy              =    -306.88009086 Ry
     estimated scf accuracy    <       0.00000005 Ry

     iteration # 27     ecut=    70.00 Ry     beta= 0.70
     Davidson diagonalization with overlap
     ethr =  2.19E-10,  avg # of iterations =  4.3

     total cpu time spent up to now is       98.5 secs

     total energy              =    -306.88009087 Ry
     estimated scf accuracy    <          8.3E-09 Ry

     iteration # 28     ecut=    70.00 Ry     beta= 0.70
     Davidson diagonalization with overlap
[...]
        k(   46) = (   0.3420618   0.5924685   0.1106665), wk =   0.0164609
        k(   47) = (   0.3420618   0.5924685   0.2213330), wk =   0.0164609
        k(   48) = (   0.3420618   0.5924685  -0.3319996), wk =   0.0082305

     Dense  grid:    34965 G-vectors     FFT dimensions: (  45,  45,  60)

     Smooth grid:    23991 G-vectors     FFT dimensions: (  36,  36,  54)

     Estimated max dynamical RAM per process >      16.53 MB

     Estimated total dynamical RAM >     296.42 MB

     Check: negative core charge=   -0.000008

     Initial potential from superposition of free atoms

     starting charge      21.9956, renormalised to      22.0000
     Starting wfcs are   20 randomized atomic wfcs
     Checking if some PAW data can be deallocated... 

     total cpu time spent up to now is      205.0 secs

     Self-consistent Calculation

     iteration #  1     ecut=    70.00 Ry     beta= 0.70
     Davidson diagonalization with overlap
     c_bands:  2 eigenvalues not converged
     c_bands:  1 eigenvalues not converged
     c_bands:  4 eigenvalues not converged
     c_bands:  5 eigenvalues not converged
     c_bands:  3 eigenvalues not converged
     c_bands:  1 eigenvalues not converged
     ethr =  1.00E-06,  avg # of iterations = 32.3

     total cpu time spent up to now is      209.4 secs

     total energy              =    -306.87431789 Ry
     estimated scf accuracy    <       0.01762661 Ry

     iteration #  2     ecut=    70.00 Ry     beta= 0.70
     Davidson diagonalization with overlap
     ethr =  8.01E-05,  avg # of iterations =  3.8

     total cpu time spent up to now is      210.0 secs

     total energy              =    -306.87848988 Ry
     estimated scf accuracy    <       0.00140798 Ry

     iteration #  3     ecut=    70.00 Ry     beta= 0.70
     Davidson diagonalization with overlap
     ethr =  6.40E-06,  avg # of iterations =  8.0

     total cpu time spent up to now is      210.9 secs

     total energy              =    -306.87939054 Ry
     estimated scf accuracy    <       0.00028059 Ry

     iteration #  4     ecut=    70.00 Ry     beta= 0.70
     Davidson diagonalization with overlap
     ethr =  1.28E-06,  avg # of iterations =  6.5

     total cpu time spent up to now is      211.7 secs

     total energy              =    -306.87956587 Ry
     estimated scf accuracy    <       0.00013641 Ry

     iteration #  5     ecut=    70.00 Ry     beta= 0.70
     Davidson diagonalization with overlap
     ethr =  6.20E-07,  avg # of iterations =  5.2

     total cpu time spent up to now is      212.4 secs

     total energy              =    -306.87962263 Ry
     estimated scf accuracy    <       0.00001028 Ry

     iteration #  6     ecut=    70.00 Ry     beta= 0.70
     Davidson diagonalization with overlap
     ethr =  4.67E-08,  avg # of iterations =  8.4

     total cpu time spent up to now is      213.3 secs

     total energy              =    -306.87962221 Ry
     estimated scf accuracy    <       0.00001529 Ry

     iteration #  7     ecut=    70.00 Ry     beta= 0.70
     Davidson diagonalization with overlap
     ethr =  4.67E-08,  avg # of iterations =  5.5

     total cpu time spent up to now is      214.0 secs

     total energy              =    -306.87962689 Ry
     estimated scf accuracy    <       0.00000128 Ry

     iteration #  8     ecut=    70.00 Ry     beta= 0.70
     Davidson diagonalization with overlap
     ethr =  5.81E-09,  avg # of iterations =  6.7

     total cpu time spent up to now is      214.8 secs

     total energy              =    -306.87962752 Ry
     estimated scf accuracy    <       0.00000050 Ry

     iteration #  9     ecut=    70.00 Ry     beta= 0.70
     Davidson diagonalization with overlap
     ethr =  2.30E-09,  avg # of iterations =  5.2

     total cpu time spent up to now is      215.4 secs

     total energy              =    -306.87962770 Ry
     estimated scf accuracy    <          2.9E-09 Ry

     iteration # 10     ecut=    70.00 Ry     beta= 0.70
     Davidson diagonalization with overlap
     c_bands:  2 eigenvalues not converged
     c_bands:  2 eigenvalues not converged
     c_bands:  1 eigenvalues not converged
     c_bands:  1 eigenvalues not converged
     c_bands:  1 eigenvalues not converged
     c_bands:  3 eigenvalues not converged
     c_bands:  2 eigenvalues not converged
     ethr =  1.34E-11,  avg # of iterations = 19.3

     total cpu time spent up to now is      217.5 secs

     total energy              =    -306.87962776 Ry
     estimated scf accuracy    <          2.5E-09 Ry

     iteration # 11     ecut=    70.00 Ry     beta= 0.70
     Davidson diagonalization with overlap
     ethr =  1.15E-11,  avg # of iterations =  2.8

     total cpu time spent up to now is      218.1 secs

     total energy              =    -306.87962776 Ry
     estimated scf accuracy    <          1.0E-09 Ry

     iteration # 12     ecut=    70.00 Ry     beta= 0.70
     Davidson diagonalization with overlap
     ethr =  4.69E-12,  avg # of iterations =  6.2

     total cpu time spent up to now is      218.7 secs

     End of self-consistent calculation

          k = 0.0000 0.0000 0.0000 (  2995 PWs)   bands (ev):

   -38.6046 -38.4905 -17.8105 -17.3247 -17.3247 -17.2289 -17.2289 -17.1868
     4.8400   8.3125  11.0583  11.7201  11.7202  12.0749  12.2431

          k =-0.0000-0.0000 0.1107 (  2977 PWs)   bands (ev):

   -38.5970 -38.4983 -17.7705 -17.3183 -17.3183 -17.2353 -17.2353 -17.2304
     5.0466   8.1136  10.8939  11.6165  11.6165  11.9324  12.1094

          k =-0.0000-0.0000 0.2213 (  2977 PWs)   bands (ev):

   -38.5764 -38.5193 -17.6599 -17.3483 -17.3008 -17.3008 -17.2529 -17.2529
     5.6360   7.4499  10.8282  11.5348  11.5349  11.5621  11.8371

          k = 0.0000 0.0000-0.3320 (  3014 PWs)   bands (ev):

   -38.5479 -38.5479 -17.5059 -17.5059 -17.2769 -17.2769 -17.2769 -17.2769
     6.5074   6.5074  11.1178  11.1179  11.6128  11.6128  11.6128

          k =-0.0000 0.1317 0.0000 (  2968 PWs)   bands (ev):

   -38.5958 -38.4878 -17.7878 -17.3666 -17.3394 -17.2730 -17.2339 -17.1978
     5.1284   8.5458  10.7374  11.2803  11.9380  12.0613  12.3292

          k =-0.0000 0.1317 0.1107 (  2982 PWs)   bands (ev):

   -38.5887 -38.4952 -17.7525 -17.3580 -17.3324 -17.2978 -17.2410 -17.2201
     5.3286   8.3532  10.5764  11.2790  11.7828  11.9359  12.2632

          k =-0.0000 0.1317 0.2213 (  2989 PWs)   bands (ev):

   -38.5691 -38.5151 -17.6551 -17.3872 -17.3323 -17.3131 -17.2604 -17.2599
     5.9008   7.6865  10.5669  11.2859  11.5142  11.6883  11.9966

          k =-0.0000 0.1317-0.3320 (  2976 PWs)   bands (ev):

   -38.5421 -38.5421 -17.5206 -17.5206 -17.2981 -17.2981 -17.2868 -17.2868
     6.7521   6.7521  10.9124  10.9124  11.5682  11.5684  11.7714

          k =-0.0000 0.2633 0.0000 (  2992 PWs)   bands (ev):

   -38.5726 -38.4819 -17.7254 -17.4745 -17.3807 -17.3748 -17.2480 -17.2307
     5.9355   9.0757  10.1240  10.6178  11.7311  11.9643  11.9859

          k =-0.0000 0.2633 0.1107 (  2981 PWs)   bands (ev):

   -38.5666 -38.4881 -17.7078 -17.4571 -17.4083 -17.3664 -17.2566 -17.2396
     6.1129   8.9161  10.0108  10.6699  11.6534  11.9002  11.9377

          k =-0.0000 0.2633 0.2213 (  2984 PWs)   bands (ev):

   -38.5501 -38.5048 -17.6565 -17.4919 -17.3946 -17.3434 -17.2800 -17.2726
     6.6218   8.2596  10.1445  10.7699  11.3498  11.7064  11.9769

          k =-0.0000 0.2633-0.3320 (  2988 PWs)   bands (ev):

   -38.5275 -38.5275 -17.5789 -17.5789 -17.3297 -17.3297 -17.3118 -17.3118
     7.3877   7.3877  10.5421  10.5421  11.3889  11.3889  12.1563

          k =-0.0000 0.3950 0.0000 (  3000 PWs)   bands (ev):

   -38.5435 -38.4779 -17.6396 -17.5989 -17.4969 -17.4130 -17.2828 -17.2659
     7.0735   9.3041   9.6004  10.1329  11.6287  11.7021  11.7519

          k =-0.0000 0.3950 0.1107 (  2996 PWs)   bands (ev):

   -38.5391 -38.4823 -17.6820 -17.5522 -17.5053 -17.4033 -17.2785 -17.2759
     7.1971   9.1817   9.6212  10.2179  11.4739  11.7324  11.8378

          k =-0.0000 0.3950 0.2213 (  3010 PWs)   bands (ev):

   -38.5271 -38.4943 -17.6983 -17.6093 -17.4203 -17.3766 -17.3031 -17.2897
     7.5516   8.6920   9.9053  10.3596  11.2736  11.6407  12.0314

          k =-0.0000 0.3950-0.3320 (  2976 PWs)   bands (ev):

   -38.5107 -38.5107 -17.6703 -17.6703 -17.3399 -17.3399 -17.3383 -17.3383
     8.0845   8.0845  10.2670  10.2670  11.3247  11.3247  12.4856

          k =-0.0000 0.5266 0.0000 (  3016 PWs)   bands (ev):

   -38.5206 -38.4790 -17.6807 -17.5698 -17.5629 -17.4371 -17.3374 -17.2782
     8.1627   9.0243   9.3129   9.8613  11.4367  11.5366  12.0697

          k =-0.0000 0.5266 0.1107 (  3017 PWs)   bands (ev):

   -38.5178 -38.4818 -17.7187 -17.6108 -17.4999 -17.4266 -17.3203 -17.2890
     8.1599   8.9502   9.5111   9.8842  11.5728  11.6010  11.9339

          k =-0.0000 0.5266 0.2213 (  2992 PWs)   bands (ev):

   -38.5102 -38.4893 -17.7498 -17.6825 -17.4067 -17.3978 -17.3184 -17.3080
     8.2278   8.7239   9.8626  10.1080  11.5649  11.7003  11.9692

          k =-0.0000 0.5266-0.3320 (  2988 PWs)   bands (ev):

   -38.4998 -38.4998 -17.7367 -17.7367 -17.3583 -17.3583 -17.3362 -17.3362
     8.4320   8.4320  10.1743  10.1743  11.5193  11.5194  12.5869

          k = 0.1140 0.1975 0.0000 (  2988 PWs)   bands (ev):

   -38.5798 -38.4836 -17.7452 -17.4286 -17.3951 -17.3228 -17.2518 -17.2199
     5.6781   8.9432  10.3008  10.7718  11.8127  11.9029  12.3830

          k = 0.1140 0.1975 0.1107 (  2977 PWs)   bands (ev):

   -38.5734 -38.4901 -17.7206 -17.4135 -17.4007 -17.3407 -17.2598 -17.2301
     5.8640   8.7703  10.1634  10.8163  11.7388  11.8786  11.9940

          k = 0.1140 0.1975 0.2213 (  2978 PWs)   bands (ev):

   -38.5559 -38.5078 -17.6524 -17.4589 -17.3731 -17.3413 -17.2812 -17.2627
     6.3972   8.1020  10.2510  10.9099  11.3859  11.7105  11.9473

          k = 0.1140 0.1975-0.3320 (  2996 PWs)   bands (ev):

   -38.5319 -38.5319 -17.5566 -17.5566 -17.3280 -17.3280 -17.3013 -17.3013
     7.1980   7.1980  10.6470  10.6470  11.4126  11.4126  12.0507

          k = 0.1140 0.3291 0.0000 (  3000 PWs)   bands (ev):

   -38.5535 -38.4787 -17.6704 -17.5351 -17.4814 -17.3841 -17.2785 -17.2631
     6.6660   9.4028   9.7981  10.1957  11.5209  11.6527  11.9623

          k = 0.1140 0.3291 0.1107 (  2992 PWs)   bands (ev):

   -38.5485 -38.4837 -17.6778 -17.5190 -17.4761 -17.3927 -17.2896 -17.2580
     6.8172   9.2803   9.7381  10.2706  11.4208  11.7583  11.8631

          k = 0.1140 0.3291 0.2213 (  2990 PWs)   bands (ev):

   -38.5349 -38.4975 -17.6702 -17.5655 -17.4130 -17.3809 -17.3143 -17.2703
     7.2512   8.6619   9.9884  10.4319  11.2064  11.5366  12.0342

          k = 0.1140 0.3291-0.3320 (  3002 PWs)   bands (ev):

   -38.5162 -38.5162 -17.6292 -17.6292 -17.3667 -17.3667 -17.3115 -17.3115
     7.9054   7.9054  10.3606  10.3606  11.1988  11.1988  12.3704

          k = 0.1140 0.4608 0.0000 (  3006 PWs)   bands (ev):

   -38.5266 -38.4781 -17.6387 -17.5844 -17.5440 -17.4403 -17.3211 -17.2998
     7.8300   9.3230   9.4408   9.8845  11.3295  11.6396  11.9341

          k = 0.1140 0.4608 0.1107 (  3001 PWs)   bands (ev):

   -38.5233 -38.4813 -17.6851 -17.5899 -17.5048 -17.4328 -17.3222 -17.2928
     7.9052   9.2084   9.5436   9.9984  11.3133  11.5727  11.9361

          k = 0.1140 0.4608 0.2213 (  2995 PWs)   bands (ev):

   -38.5145 -38.4902 -17.7161 -17.6513 -17.4439 -17.3859 -17.3447 -17.2842
     8.1283   8.8798   9.8701  10.2299  11.1822  11.3677  12.1107

          k = 0.1140 0.4608-0.3320 (  2992 PWs)   bands (ev):

   -38.5023 -38.5023 -17.7026 -17.7026 -17.3990 -17.3990 -17.3111 -17.3111
     8.4770   8.4770  10.2359  10.2359  11.1263  11.1263  12.5560

          k = 0.1140 0.5925 0.0000 (  3000 PWs)   bands (ev):

   -38.5133 -38.4805 -17.6796 -17.5683 -17.5357 -17.4623 -17.3587 -17.3082
     8.5806   9.0355   9.3136   9.7374  11.3194  11.4579  12.1614

          k = 0.1140 0.5925 0.1107 (  2998 PWs)   bands (ev):

   -38.5111 -38.4827 -17.7110 -17.6097 -17.5027 -17.4337 -17.3474 -17.3071
     8.5156   9.0230   9.5657   9.7441  11.3345  11.4715  12.1115

          k = 0.1140 0.5925 0.2213 (  2998 PWs)   bands (ev):

   -38.5050 -38.4887 -17.7422 -17.6819 -17.4581 -17.3686 -17.3650 -17.2934
     8.5059   8.8750   9.9341  10.0554  11.1911  11.3938  12.2383

          k = 0.1140 0.5925-0.3320 (  2990 PWs)   bands (ev):

   -38.4968 -38.4968 -17.7330 -17.7330 -17.4117 -17.4117 -17.3094 -17.3094
     8.6471   8.6471  10.2403  10.2403  11.1348  11.1348  12.6940

          k = 0.2280 0.3950 0.0000 (  3000 PWs)   bands (ev):

   -38.5289 -38.4778 -17.5925 -17.5882 -17.5582 -17.4269 -17.3334 -17.3150
     7.7183   9.5375   9.6488   9.7436  11.2032  11.7110  11.8286

          k = 0.2280 0.3950 0.1107 (  3006 PWs)   bands (ev):

   -38.5255 -38.4813 -17.6506 -17.5971 -17.4805 -17.4513 -17.3426 -17.2918
     7.8250   9.4008   9.7708   9.8236  11.1870  11.5300  11.8545

          k = 0.2280 0.3950 0.2213 (  3010 PWs)   bands (ev):

   -38.5161 -38.4906 -17.6848 -17.6343 -17.4572 -17.4117 -17.3484 -17.2763
     8.1279   9.0467  10.0400  10.0464  11.0597  11.1725  12.0095

          k = 0.2280 0.3950-0.3320 (  2996 PWs)   bands (ev):

   -38.5034 -38.5034 -17.6755 -17.6755 -17.4296 -17.4296 -17.3009 -17.3009
     8.5708   8.5708  10.2412  10.2412  10.9120  10.9120  12.4229

          k = 0.2280 0.5266 0.0000 (  2997 PWs)   bands (ev):

   -38.5079 -38.4821 -17.6416 -17.5521 -17.5150 -17.4909 -17.3755 -17.3702
     8.7335   9.4038   9.4139   9.6161  11.1359  11.3904  12.2063

          k = 0.2280 0.5266 0.1107 (  3003 PWs)   bands (ev):

   -38.5061 -38.4839 -17.6612 -17.6024 -17.5275 -17.4354 -17.3864 -17.3311
     8.7686   9.3404   9.5375   9.7688  11.0943  11.2134  12.1965

          k = 0.2280 0.5266 0.2213 (  2997 PWs)   bands (ev):

   -38.5014 -38.4885 -17.6965 -17.6596 -17.5198 -17.4330 -17.3415 -17.2911
     8.8807   9.2269   9.8476  10.1188  10.8070  10.9097  12.2736

          k = 0.2280 0.5266-0.3320 (  2992 PWs)   bands (ev):

   -38.4949 -38.4949 -17.6984 -17.6984 -17.4784 -17.4784 -17.2932 -17.2932
     9.0547   9.0547  10.2819  10.2819  10.5762  10.5762  12.5880

          k = 0.3421 0.5925 0.0000 (  3006 PWs)   bands (ev):

   -38.4921 -38.4921 -17.6300 -17.5293 -17.5293 -17.4423 -17.4423 -17.4187
     9.3526   9.3526   9.4161   9.4553  11.1589  11.1589  12.3854

          k = 0.3421 0.5925 0.1107 (  2994 PWs)   bands (ev):

   -38.4921 -38.4921 -17.6161 -17.5906 -17.5906 -17.4331 -17.3800 -17.3800
     9.4428   9.4428   9.4691   9.4922  11.0147  11.0147  12.3668

          k = 0.3421 0.5925 0.2213 (  2991 PWs)   bands (ev):

   -38.4920 -38.4920 -17.6559 -17.6559 -17.5780 -17.4723 -17.3126 -17.3126
     9.5749   9.5766   9.6818   9.6818  10.6826  10.6826  12.3935

          k = 0.3421 0.5925-0.3320 (  2976 PWs)   bands (ev):

   -38.4920 -38.4920 -17.6804 -17.6804 -17.5254 -17.5254 -17.2871 -17.2871
     9.6265   9.6265   9.8827   9.8827  10.4415  10.4415  12.6402

     the Fermi energy is    10.0732 ev

!    total energy              =    -306.87962776 Ry
     total all-electron energy =     -3050.020399 Ry
     estimated scf accuracy    <          3.4E-11 Ry
     smearing contrib. (-TS)   =      -0.00065435 Ry
     internal energy E=F+TS    =    -306.87897341 Ry

     The total energy is F=E-TS. E is the sum of the following terms:
     one-electron contribution =     -67.44738217 Ry
     hartree contribution      =      40.07768862 Ry
     xc contribution           =     -34.67440956 Ry
     ewald contribution        =    -131.07839896 Ry
     one-center paw contrib.   =    -113.75647135 Ry

     convergence has been achieved in  12 iterations

     Forces acting on atoms (cartesian axes, Ry/au):

     atom    1 type  1   force =     0.00000000   -0.00000000   -0.00000000
     atom    2 type  1   force =    -0.00000000    0.00000000    0.00000000
     The non-local contrib.  to forces
     atom    1 type  1   force =     0.00000000    0.00000000    0.00000000
     atom    2 type  1   force =    -0.00000000   -0.00000000   -0.00000000
     The ionic contribution  to forces
     atom    1 type  1   force =     0.00000000   -0.00000000   -0.00000000
     atom    2 type  1   force =    -0.00000000    0.00000000    0.00000000
     The local contribution  to forces
     atom    1 type  1   force =     0.00000000    0.00000000    0.00000000
     atom    2 type  1   force =    -0.00000000    0.00000000    0.00000000
     The core correction contribution to forces
     atom    1 type  1   force =     0.00000000    0.00000000    0.00000000
     atom    2 type  1   force =     0.00000000   -0.00000000   -0.00000000
     The Hubbard contrib.    to forces
     atom    1 type  1   force =     0.00000000    0.00000000    0.00000000
     atom    2 type  1   force =     0.00000000    0.00000000    0.00000000
     The SCF correction term to forces
     atom    1 type  1   force =     0.00000000   -0.00000000   -0.00000000
     atom    2 type  1   force =     0.00000000    0.00000000   -0.00000000

     Total force =     0.000000     Total SCF correction =     0.000000


     Computing stress (Cartesian axis) and pressure

          total   stress  (Ry/bohr**3)                   (kbar)     P=       -1.92
  -0.00001202   0.00000000   0.00000000           -1.77        0.00        0.00
   0.00000000  -0.00001202   0.00000000            0.00       -1.77        0.00
   0.00000000  -0.00000000  -0.00001516            0.00       -0.00       -2.23


     Writing all to output data dir sc_vcrelax.out/scandium.save/

     init_run     :      2.74s CPU      2.77s WALL (       2 calls)
     electrons    :    179.77s CPU    184.03s WALL (      10 calls)
     update_pot   :      8.63s CPU      8.70s WALL (       8 calls)
     forces       :      5.62s CPU      5.63s WALL (      10 calls)
     stress       :     18.77s CPU     18.96s WALL (      10 calls)

     Called by init_run:
     wfcinit      :      0.40s CPU      0.42s WALL (       2 calls)
     potinit      :      0.51s CPU      0.52s WALL (       2 calls)
     hinit0       :      1.70s CPU      1.70s WALL (       2 calls)

     Called by electrons:
     c_bands      :    151.08s CPU    154.68s WALL (     207 calls)
     sum_band     :     17.39s CPU     17.61s WALL (     207 calls)
     v_of_rho     :      1.12s CPU      1.13s WALL (     214 calls)
     newd         :      2.59s CPU      2.61s WALL (     214 calls)
     PAW_pot      :      6.68s CPU      6.70s WALL (     222 calls)
     mix_rho      :      0.66s CPU      0.67s WALL (     207 calls)

     Called by c_bands:
     init_us_2    :      2.36s CPU      2.43s WALL (    4440 calls)
     init_us_2:cp :      2.34s CPU      2.42s WALL (    4440 calls)
     cegterg      :    111.90s CPU    113.33s WALL (    2079 calls)

     Called by *egterg:
     cdiaghg      :      3.59s CPU      3.64s WALL (   12221 calls)
     h_psi        :     82.79s CPU     84.03s WALL (   12357 calls)
     s_psi        :      5.51s CPU      5.55s WALL (   12357 calls)
     g_psi        :      0.52s CPU      0.52s WALL (   10258 calls)

     Called by h_psi:
     h_psi:calbec :      5.80s CPU      5.87s WALL (   12357 calls)
     vloc_psi     :     71.02s CPU     72.16s WALL (   12357 calls)
     add_vuspsi   :      5.53s CPU      5.57s WALL (   12357 calls)

     General routines
     calbec       :      7.83s CPU      7.92s WALL (   15007 calls)
     fft          :      1.81s CPU      1.90s WALL (    1355 calls)
     ffts         :      0.27s CPU      0.27s WALL (     421 calls)
     fftw         :     72.65s CPU     73.79s WALL (  242352 calls)
     interpolate  :      0.43s CPU      0.44s WALL (     214 calls)

     Parallel routines

     PWSCF        :   3m36.33s CPU   3m41.14s WALL


   This run was terminated on:  10:34:11  24Jul2023            

=------------------------------------------------------------------------------=
   JOB DONE.
=------------------------------------------------------------------------------=
