
     Program PWSCF v.7.2 starts on 24Jul2023 at 10:27:12 

     This program is part of the open-source Quantum ESPRESSO suite
     for quantum simulation of materials; please cite
         "P. Giannozzi et al., J. Phys.:Condens. Matter 21 395502 (2009);
         "P. Giannozzi et al., J. Phys.:Condens. Matter 29 465901 (2017);
         "P. Giannozzi et al., J. Chem. Phys. 152 154105 (2020);
          URL http://www.quantum-espresso.org", 
     in publications or presentations arising from this work. More details at
     http://www.quantum-espresso.org/quote

     Parallel version (MPI), running on    20 processors

     MPI processes distributed on     1 nodes
     317468 MiB available memory on the printing compute node when the environment starts

     Waiting for input...
     Reading input from standard input

     Current dimensions of program PWSCF are:
     Max number of different atomic species (ntypx) = 10
     Max number of k-points (npk) = 120000
     Max angular momentum in pseudopotentials (lmaxx) =  4
     file Sc.pz-spn-kjpaw_psl.1.0.0.UPF: wavefunction(s)  3S 3P 3D renormalized

     K-points division:     npool     =       5
     R & G space division:  proc/nbgrp/npool/nimage =       4
     Subspace diagonalization in iterative solution of the eigenvalue problem:
     a serial algorithm will be used


     Parallelization info
     --------------------
     sticks:   dense  smooth     PW     G-vecs:    dense   smooth      PW
     Min         238     186     55                 9744     6682    1064
     Max         239     187     56                 9751     6691    1066
     Sum         955     745    223                38995    26741    4259

     Using Slab Decomposition



     bravais-lattice index     =            4
     lattice parameter (alat)  =       6.2531  a.u.
     unit-cell volume          =     337.5249 (a.u.)^3
     number of atoms/cell      =            2
     number of atomic types    =            1
     number of electrons       =        22.00
     number of Kohn-Sham states=           15
     kinetic-energy cutoff     =      70.0000  Ry
     charge density cutoff     =     360.0000  Ry
     scf convergence threshold =      1.0E-08
     mixing beta               =       0.7000
     number of iterations used =            8  plain     mixing
     energy convergence thresh.=      1.0E-04
     force convergence thresh. =      1.0E-03
     press convergence thresh. =      5.0E-01
     Exchange-correlation= SLA  PZ   NOGX NOGC
                           (   1   1   0   0   0   0   0)
     nstep                     =           50


     celldm(1)=   6.253104  celldm(2)=   0.000000  celldm(3)=   1.594000
     celldm(4)=   0.000000  celldm(5)=   0.000000  celldm(6)=   0.000000

     crystal axes: (cart. coord. in units of alat)
               a(1) = (   1.000000   0.000000   0.000000 )  
               a(2) = (  -0.500000   0.866025   0.000000 )  
               a(3) = (   0.000000   0.000000   1.594000 )  

     reciprocal axes: (cart. coord. in units 2 pi/alat)
               b(1) = (  1.000000  0.577350 -0.000000 )  
               b(2) = (  0.000000  1.154701  0.000000 )  
               b(3) = (  0.000000 -0.000000  0.627353 )  


     PseudoPot. # 1 for Sc read from file:
     ../../../Sc.pz-spn-kjpaw_psl.1.0.0.UPF
     MD5 check sum: 1f9095df0bb42a6568b4e9f256ff075f
     Pseudo is Projector augmented-wave + core cor, Zval = 11.0
     Generated using 'atomic' code by A. Dal Corso  v.7.1
     Shape of augmentation charge: PSQ
     Using radial grid of 1173 points,  6 beta functions with: 
                l(1) =   0
                l(2) =   0
                l(3) =   1
                l(4) =   1
                l(5) =   2
                l(6) =   2
     Q(r) pseudized with 0 coefficients 


     atomic species   valence    mass     pseudopotential
        Sc            11.00    44.59600     Sc( 1.00)

     24 Sym. Ops., with inversion, found (12 have fractional translation)



   Cartesian axes

     site n.     atom                  positions (alat units)
         1           Sc  tau(   1) = (   0.0000000   0.0000000   0.0000000  )
         2           Sc  tau(   2) = (   0.5000000   0.2886751   0.7970000  )

     number of k points=     6  Marzari-Vanderbilt smearing, width (Ry)=  0.0200
                       cart. coord. in units 2pi/alat
        k(    1) = (   0.0000000   0.0000000   0.0000000), wk =   0.1111111
        k(    2) = (   0.0000000   0.0000000  -0.3136763), wk =   0.1111111
        k(    3) = (   0.0000000   0.3849002   0.0000000), wk =   0.6666667
        k(    4) = (   0.0000000   0.3849002  -0.3136763), wk =   0.6666667
        k(    5) = (   0.3333333   0.5773503   0.0000000), wk =   0.2222222
        k(    6) = (   0.3333333   0.5773503  -0.3136763), wk =   0.2222222

     Dense  grid:    38995 G-vectors     FFT dimensions: (  45,  45,  64)

     Smooth grid:    26741 G-vectors     FFT dimensions: (  36,  36,  54)

     Estimated max dynamical RAM per process >      16.37 MB

     Estimated total dynamical RAM >     289.36 MB

     Check: negative core charge=   -0.000008

     Initial potential from superposition of free atoms

     starting charge      21.9956, renormalised to      22.0000
     Starting wfcs are   20 randomized atomic wfcs
     Checking if some PAW data can be deallocated... 

     total cpu time spent up to now is        1.7 secs

     Self-consistent Calculation

     iteration #  1     ecut=    70.00 Ry     beta= 0.70
     Davidson diagonalization with overlap
     ethr =  1.00E-02,  avg # of iterations =  2.2

     Threshold (ethr) on eigenvalues was too large:
     Diagonalizing with lowered threshold

     Davidson diagonalization with overlap
     ethr =  2.44E-05,  avg # of iterations = 15.0

     total cpu time spent up to now is        2.2 secs

     total energy              =    -306.85813793 Ry
     estimated scf accuracy    <       0.01699516 Ry

     iteration #  2     ecut=    70.00 Ry     beta= 0.70
     Davidson diagonalization with overlap
     ethr =  7.73E-05,  avg # of iterations =  3.5

     total cpu time spent up to now is        2.4 secs

     total energy              =    -306.86195428 Ry
     estimated scf accuracy    <       0.00112616 Ry

     iteration #  3     ecut=    70.00 Ry     beta= 0.70
     Davidson diagonalization with overlap
     ethr =  5.12E-06,  avg # of iterations =  9.5

     total cpu time spent up to now is        2.6 secs

     total energy              =    -306.86293095 Ry
     estimated scf accuracy    <       0.00031056 Ry

     iteration #  4     ecut=    70.00 Ry     beta= 0.70
     Davidson diagonalization with overlap
     ethr =  1.41E-06,  avg # of iterations =  5.0

     total cpu time spent up to now is        2.8 secs

     total energy              =    -306.86308114 Ry
     estimated scf accuracy    <       0.00010746 Ry

     iteration #  5     ecut=    70.00 Ry     beta= 0.70
     Davidson diagonalization with overlap
     ethr =  4.88E-07,  avg # of iterations =  5.5

     total cpu time spent up to now is        3.0 secs

     total energy              =    -306.86313793 Ry
     estimated scf accuracy    <       0.00001538 Ry

     iteration #  6     ecut=    70.00 Ry     beta= 0.70
     Davidson diagonalization with overlap
     ethr =  6.99E-08,  avg # of iterations =  7.7

     total cpu time spent up to now is        3.3 secs

     total energy              =    -306.86314105 Ry
     estimated scf accuracy    <       0.00001020 Ry

     iteration #  7     ecut=    70.00 Ry     beta= 0.70
     Davidson diagonalization with overlap
     ethr =  4.64E-08,  avg # of iterations =  4.0

     total cpu time spent up to now is        3.4 secs

     total energy              =    -306.86314386 Ry
     estimated scf accuracy    <       0.00000005 Ry

     iteration #  8     ecut=    70.00 Ry     beta= 0.70
     Davidson diagonalization with overlap
     c_bands:  1 eigenvalues not converged
     ethr =  2.46E-10,  avg # of iterations = 20.3

     total cpu time spent up to now is        4.0 secs

     total energy              =    -306.86314520 Ry
     estimated scf accuracy    <       0.00000050 Ry

     iteration #  9     ecut=    70.00 Ry     beta= 0.70
     Davidson diagonalization with overlap
     ethr =  2.46E-10,  avg # of iterations =  2.7

     total cpu time spent up to now is        4.2 secs

     total energy              =    -306.86314495 Ry
     estimated scf accuracy    <       0.00000041 Ry

     iteration # 10     ecut=    70.00 Ry     beta= 0.70
     Davidson diagonalization with overlap
     ethr =  2.46E-10,  avg # of iterations =  7.3

     total cpu time spent up to now is        4.4 secs

     End of self-consistent calculation

          k = 0.0000 0.0000 0.0000 (  3381 PWs)   bands (ev):

   -40.0766 -40.0120 -19.1341 -18.8497 -18.8497 -18.7912 -18.7912 -18.7227
     3.7555   7.1354   9.3287  10.3640  10.3640  10.5136  10.7661

          k = 0.0000 0.0000-0.3137 (  3326 PWs)   bands (ev):

   -40.0444 -40.0444 -18.9318 -18.9318 -18.8205 -18.8205 -18.8205 -18.8205
     5.2308   5.2308   9.7048   9.7048  10.3108  10.3108  10.3109

          k = 0.0000 0.3849 0.0000 (  3326 PWs)   bands (ev):

   -40.0363 -39.9993 -19.0583 -19.0171 -18.9962 -18.9139 -18.8240 -18.7818
     5.8681   8.1849   8.3729   8.9214  10.2369  10.2612  10.4070

          k = 0.0000 0.3849-0.3137 (  3338 PWs)   bands (ev):

   -40.0178 -40.0178 -19.0828 -19.0828 -18.8691 -18.8691 -18.8438 -18.8438
     6.8494   6.8494   9.0074   9.0074   9.9264   9.9264  11.1199

          k = 0.3333 0.5774 0.0000 (  3360 PWs)   bands (ev):

   -40.0046 -40.0046 -19.0744 -19.0135 -19.0135 -18.9456 -18.8849 -18.8849
     8.1529   8.1529   8.2893   8.3955   9.8004   9.8004  10.7933

          k = 0.3333 0.5774-0.3137 (  3336 PWs)   bands (ev):

   -40.0045 -40.0045 -19.0853 -19.0853 -19.0104 -19.0104 -18.8113 -18.8113
     8.4746   8.4746   8.6902   8.6902   9.0568   9.0568  11.1168

     the Fermi energy is     8.8679 ev

!    total energy              =    -306.86314506 Ry
     total all-electron energy =     -3050.003916 Ry
     estimated scf accuracy    <          1.1E-09 Ry
     smearing contrib. (-TS)   =      -0.00120488 Ry
     internal energy E=F+TS    =    -306.86194017 Ry

     The total energy is F=E-TS. E is the sum of the following terms:
     one-electron contribution =     -74.46540608 Ry
     hartree contribution      =      42.36598300 Ry
     xc contribution           =     -34.54242941 Ry
     ewald contribution        =    -126.46581261 Ry
     one-center paw contrib.   =    -113.75427508 Ry

     convergence has been achieved in  10 iterations

     Forces acting on atoms (cartesian axes, Ry/au):

     atom    1 type  1   force =    -0.00000000   -0.00000000    0.00000000
     atom    2 type  1   force =     0.00000000    0.00000000    0.00000000
     The non-local contrib.  to forces
     atom    1 type  1   force =     0.00000000    0.00000000    0.00000000
     atom    2 type  1   force =     0.00000000   -0.00000000    0.00000000
     The ionic contribution  to forces
     atom    1 type  1   force =     0.00000000   -0.00000000    0.00000000
     atom    2 type  1   force =    -0.00000000    0.00000000    0.00000000
     The local contribution  to forces
     atom    1 type  1   force =     0.00000000    0.00000000    0.00000000
     atom    2 type  1   force =    -0.00000000    0.00000000    0.00000000
     The core correction contribution to forces
     atom    1 type  1   force =    -0.00000000   -0.00000000    0.00000000
     atom    2 type  1   force =     0.00000000   -0.00000000    0.00000000
     The Hubbard contrib.    to forces
     atom    1 type  1   force =     0.00000000    0.00000000    0.00000000
     atom    2 type  1   force =     0.00000000    0.00000000    0.00000000
     The SCF correction term to forces
     atom    1 type  1   force =    -0.00000000   -0.00000000   -0.00000000
     atom    2 type  1   force =     0.00000000   -0.00000000    0.00000000

     Total force =     0.000000     Total SCF correction =     0.000000


     Computing stress (Cartesian axis) and pressure

          total   stress  (Ry/bohr**3)                   (kbar)     P=      -62.47
  -0.00037627   0.00000000  -0.00000000          -55.35        0.00       -0.00
   0.00000000  -0.00037627   0.00000000            0.00      -55.35        0.00
  -0.00000000   0.00000000  -0.00052143           -0.00        0.00      -76.71


     BFGS Geometry Optimization
     Energy error            =      0.0E+00 Ry
     Gradient error          =      1.1E-27 Ry/Bohr
     Cell gradient error     =      7.7E+01 kbar

     number of scf cycles    =   1
     number of bfgs steps    =   0

     enthalpy           new  =    -306.8631450572 Ry

     new trust radius        =       0.0478984505 bohr
     new conv_thr            =       0.0000000100 Ry

     new unit-cell volume =    326.88720 a.u.^3 (    48.43969 Ang^3 )
     density =      3.05755 g/cm^3

CELL_PARAMETERS (alat=  6.25310370)
   0.990593196   0.000000000  -0.000000000
  -0.495296598   0.857878873   0.000000000
  -0.000000000   0.000000000   1.573220894

ATOMIC_POSITIONS (crystal)
Sc           -0.0000000000       -0.0000000000        0.0000000000
Sc            0.6666666667        0.3333333333        0.5000000000



     Writing config-only to output data dir sc_vcrelax.out/scandium.save/
     NEW-OLD atomic charge density approx. for the potential

     Check: negative core charge=   -0.000009
     extrapolated charge   21.28421, renormalised to   22.00000

     total cpu time spent up to now is        7.4 secs

     Self-consistent Calculation

     iteration #  1     ecut=    70.00 Ry     beta= 0.70
     Davidson diagonalization with overlap
     ethr =  1.00E-06,  avg # of iterations = 17.5

     total cpu time spent up to now is        7.9 secs

     total energy              =    -306.72246494 Ry
     estimated scf accuracy    <       0.10376701 Ry

     iteration #  2     ecut=    70.00 Ry     beta= 0.70
     Davidson diagonalization with overlap
     ethr =  4.72E-04,  avg # of iterations =  7.7

     total cpu time spent up to now is        8.2 secs

     total energy              =    -306.86940200 Ry
     estimated scf accuracy    <       0.17895993 Ry

     iteration #  3     ecut=    70.00 Ry     beta= 0.70
     Davidson diagonalization with overlap
     ethr =  4.72E-04,  avg # of iterations =  1.8

     total cpu time spent up to now is        8.3 secs

     total energy              =    -306.86449553 Ry
     estimated scf accuracy    <       0.05195090 Ry

     iteration #  4     ecut=    70.00 Ry     beta= 0.70
     Davidson diagonalization with overlap
     ethr =  2.36E-04,  avg # of iterations =  2.8

     total cpu time spent up to now is        8.5 secs

     total energy              =    -306.86207679 Ry
     estimated scf accuracy    <       0.02085096 Ry

     iteration #  5     ecut=    70.00 Ry     beta= 0.70
     Davidson diagonalization with overlap
     ethr =  9.48E-05,  avg # of iterations =  4.3

     total cpu time spent up to now is        8.7 secs

     total energy              =    -306.86649246 Ry
     estimated scf accuracy    <       0.00396807 Ry

     iteration #  6     ecut=    70.00 Ry     beta= 0.70
     Davidson diagonalization with overlap
     ethr =  1.80E-05,  avg # of iterations =  4.7

     total cpu time spent up to now is        8.9 secs

     total energy              =    -306.86852625 Ry
     estimated scf accuracy    <       0.00315184 Ry

     iteration #  7     ecut=    70.00 Ry     beta= 0.70
     Davidson diagonalization with overlap
     ethr =  1.43E-05,  avg # of iterations =  1.3

     total cpu time spent up to now is        9.0 secs

     total energy              =    -306.86939069 Ry
     estimated scf accuracy    <       0.00410384 Ry

     iteration #  8     ecut=    70.00 Ry     beta= 0.70
     Davidson diagonalization with overlap
     ethr =  1.43E-05,  avg # of iterations =  1.0

     total cpu time spent up to now is        9.2 secs

     total energy              =    -306.86799270 Ry
     estimated scf accuracy    <       0.00542446 Ry

     iteration #  9     ecut=    70.00 Ry     beta= 0.70
     Davidson diagonalization with overlap
     ethr =  1.43E-05,  avg # of iterations =  1.0

     total cpu time spent up to now is        9.3 secs

     total energy              =    -306.86732357 Ry
     estimated scf accuracy    <       0.00313603 Ry

     iteration # 10     ecut=    70.00 Ry     beta= 0.70
     Davidson diagonalization with overlap
     ethr =  1.43E-05,  avg # of iterations =  1.3

     total cpu time spent up to now is        9.5 secs

     total energy              =    -306.86716178 Ry
     estimated scf accuracy    <       0.00177595 Ry

     iteration # 11     ecut=    70.00 Ry     beta= 0.70
     Davidson diagonalization with overlap
     ethr =  8.07E-06,  avg # of iterations =  1.7

     total cpu time spent up to now is        9.6 secs

     total energy              =    -306.86719037 Ry
     estimated scf accuracy    <       0.00120050 Ry

     iteration # 12     ecut=    70.00 Ry     beta= 0.70
     Davidson diagonalization with overlap
     ethr =  5.46E-06,  avg # of iterations =  2.0

     total cpu time spent up to now is        9.8 secs

     total energy              =    -306.86718106 Ry
     estimated scf accuracy    <       0.00091584 Ry

     iteration # 13     ecut=    70.00 Ry     beta= 0.70
     Davidson diagonalization with overlap
     ethr =  4.16E-06,  avg # of iterations =  2.7

     total cpu time spent up to now is       10.0 secs

     total energy              =    -306.86705276 Ry
     estimated scf accuracy    <       0.00058807 Ry

     iteration # 14     ecut=    70.00 Ry     beta= 0.70
     Davidson diagonalization with overlap
     ethr =  2.67E-06,  avg # of iterations =  4.3

     total cpu time spent up to now is       10.2 secs

     total energy              =    -306.86716292 Ry
     estimated scf accuracy    <       0.00011467 Ry

     iteration # 15     ecut=    70.00 Ry     beta= 0.70
     Davidson diagonalization with overlap
     ethr =  5.21E-07,  avg # of iterations =  6.7

     total cpu time spent up to now is       10.4 secs

     total energy              =    -306.86726806 Ry
     estimated scf accuracy    <       0.00001441 Ry

     iteration # 16     ecut=    70.00 Ry     beta= 0.70
     Davidson diagonalization with overlap
     ethr =  6.55E-08,  avg # of iterations =  5.7

     total cpu time spent up to now is       10.6 secs

     total energy              =    -306.86727477 Ry
     estimated scf accuracy    <       0.00003442 Ry

     iteration # 17     ecut=    70.00 Ry     beta= 0.70
     Davidson diagonalization with overlap
     ethr =  6.55E-08,  avg # of iterations =  1.3

     total cpu time spent up to now is       10.8 secs

     total energy              =    -306.86725430 Ry
     estimated scf accuracy    <       0.00003361 Ry

     iteration # 18     ecut=    70.00 Ry     beta= 0.70
     Davidson diagonalization with overlap
     ethr =  6.55E-08,  avg # of iterations =  9.0

     total cpu time spent up to now is       11.0 secs

     total energy              =    -306.86723967 Ry
     estimated scf accuracy    <       0.00010195 Ry

     iteration # 19     ecut=    70.00 Ry     beta= 0.70
     Davidson diagonalization with overlap
     ethr =  6.55E-08,  avg # of iterations =  7.2

     total cpu time spent up to now is       11.2 secs

     total energy              =    -306.86726283 Ry
     estimated scf accuracy    <       0.00000062 Ry

     iteration # 20     ecut=    70.00 Ry     beta= 0.70
     Davidson diagonalization with overlap
     ethr =  2.83E-09,  avg # of iterations =  6.3

     total cpu time spent up to now is       11.5 secs

     total energy              =    -306.86726363 Ry
     estimated scf accuracy    <       0.00000012 Ry

     iteration # 21     ecut=    70.00 Ry     beta= 0.70
     Davidson diagonalization with overlap
     ethr =  5.29E-10,  avg # of iterations =  8.3

     total cpu time spent up to now is       11.7 secs

     total energy              =    -306.86726381 Ry
     estimated scf accuracy    <       0.00000100 Ry

     iteration # 22     ecut=    70.00 Ry     beta= 0.70
     Davidson diagonalization with overlap
     ethr =  5.29E-10,  avg # of iterations =  1.0

     total cpu time spent up to now is       11.8 secs

     total energy              =    -306.86726412 Ry
     estimated scf accuracy    <       0.00000102 Ry

     iteration # 23     ecut=    70.00 Ry     beta= 0.70
     Davidson diagonalization with overlap
     ethr =  5.29E-10,  avg # of iterations =  3.2

     total cpu time spent up to now is       12.0 secs

     total energy              =    -306.86726338 Ry
     estimated scf accuracy    <       0.00000162 Ry

     iteration # 24     ecut=    70.00 Ry     beta= 0.70
     Davidson diagonalization with overlap
     ethr =  5.29E-10,  avg # of iterations =  5.5

     total cpu time spent up to now is       12.2 secs

     total energy              =    -306.86726331 Ry
     estimated scf accuracy    <       0.00000031 Ry

     iteration # 25     ecut=    70.00 Ry     beta= 0.70
     Davidson diagonalization with overlap
     ethr =  5.29E-10,  avg # of iterations =  6.0

     total cpu time spent up to now is       12.4 secs

     End of self-consistent calculation

          k = 0.0000 0.0000 0.0000 (  3381 PWs)   bands (ev):

   -39.6363 -39.5612 -18.7218 -18.3992 -18.3992 -18.3333 -18.3333 -18.2598
     4.0601   7.4630   9.7829  10.7609  10.7609  10.9417  11.1874

          k =-0.0000 0.0000-0.3178 (  3326 PWs)   bands (ev):

   -39.5989 -39.5989 -18.4951 -18.4951 -18.3663 -18.3663 -18.3663 -18.3663
     5.5782   5.5782  10.0983  10.0983  10.7021  10.7021  10.7021

          k =-0.0000 0.3886-0.0000 (  3326 PWs)   bands (ev):

   -39.5904 -39.5473 -18.6300 -18.5908 -18.5594 -18.4704 -18.3687 -18.3267
     6.2148   8.5086   8.7222   9.2804  10.6558  10.6734  10.7951

          k =-0.0000 0.3886-0.3178 (  3338 PWs)   bands (ev):

   -39.5689 -39.5689 -18.6595 -18.6595 -18.4198 -18.4198 -18.3938 -18.3938
     7.2009   7.2009   9.3649   9.3649  10.3266  10.3266  11.5424

          k = 0.3365 0.5828-0.0000 (  3360 PWs)   bands (ev):

   -39.5538 -39.5538 -18.6484 -18.5794 -18.5794 -18.5022 -18.4426 -18.4426
     8.5043   8.5043   8.6375   8.7080  10.1922  10.1922  11.2320

          k = 0.3365 0.5828-0.3178 (  3336 PWs)   bands (ev):

   -39.5538 -39.5538 -18.6626 -18.6626 -18.5758 -18.5758 -18.3571 -18.3571
     8.8170   8.8170   9.0420   9.0420   9.4424   9.4424  11.5542

     the Fermi energy is     9.2294 ev

!    total energy              =    -306.86726339 Ry
     total all-electron energy =     -3050.008034 Ry
     estimated scf accuracy    <          1.1E-09 Ry
     smearing contrib. (-TS)   =      -0.00148701 Ry
     internal energy E=F+TS    =    -306.86577638 Ry

     The total energy is F=E-TS. E is the sum of the following terms:
     one-electron contribution =     -72.41071994 Ry
     hartree contribution      =      41.70180739 Ry
     xc contribution           =     -34.58325922 Ry
     ewald contribution        =    -127.81955358 Ry
     one-center paw contrib.   =    -113.75405103 Ry

     convergence has been achieved in  25 iterations

     Forces acting on atoms (cartesian axes, Ry/au):

     atom    1 type  1   force =     0.00000000    0.00000000    0.00000000
     atom    2 type  1   force =     0.00000000    0.00000000    0.00000000
     The non-local contrib.  to forces
     atom    1 type  1   force =    -0.00000000    0.00000000   -0.00000000
     atom    2 type  1   force =    -0.00000000    0.00000000   -0.00000000
     The ionic contribution  to forces
     atom    1 type  1   force =     0.00000000   -0.00000000   -0.00000000
     atom    2 type  1   force =    -0.00000000    0.00000000    0.00000000
     The local contribution  to forces
     atom    1 type  1   force =     0.00000000    0.00000000    0.00000000
     atom    2 type  1   force =    -0.00000000    0.00000000    0.00000000
     The core correction contribution to forces
     atom    1 type  1   force =    -0.00000000   -0.00000000    0.00000000
     atom    2 type  1   force =     0.00000000   -0.00000000   -0.00000000
     The Hubbard contrib.    to forces
     atom    1 type  1   force =     0.00000000    0.00000000    0.00000000
     atom    2 type  1   force =     0.00000000    0.00000000    0.00000000
     The SCF correction term to forces
     atom    1 type  1   force =     0.00000000    0.00000000   -0.00000000
     atom    2 type  1   force =     0.00000000   -0.00000000   -0.00000000

     Total force =     0.000000     Total SCF correction =     0.000000


     Computing stress (Cartesian axis) and pressure

          total   stress  (Ry/bohr**3)                   (kbar)     P=      -48.19
  -0.00028553  -0.00000000   0.00000000          -42.00       -0.00        0.00
   0.00000000  -0.00028553   0.00000000            0.00      -42.00        0.00
  -0.00000000   0.00000000  -0.00041175           -0.00        0.00      -60.57

     Energy error            =      4.1E-03 Ry
     Gradient error          =      0.0E+00 Ry/Bohr
     Cell gradient error     =      6.1E+01 kbar

     number of scf cycles    =   2
     number of bfgs steps    =   1

     enthalpy           old  =    -306.8631450572 Ry
     enthalpy           new  =    -306.8672633891 Ry

     CASE: enthalpy          _new < enthalpy          _old

     new trust radius        =       0.0716402958 bohr
     new conv_thr            =            1.0E-10 Ry

     new unit-cell volume =    311.73035 a.u.^3 (    46.19367 Ang^3 )
     density =      3.20621 g/cm^3

CELL_PARAMETERS (alat=  6.25310370)
   0.977082512   0.000000000  -0.000000000
  -0.488541256   0.846178277   0.000000000
   0.000000000   0.000000000   1.542052234

ATOMIC_POSITIONS (crystal)
Sc           -0.0000000000       -0.0000000000        0.0000000000
Sc            0.6666666667        0.3333333333        0.5000000000



     Writing config-only to output data dir sc_vcrelax.out/scandium.save/
     NEW-OLD atomic charge density approx. for the potential

     Check: negative core charge=   -0.000011
     extrapolated charge   20.93054, renormalised to   22.00000

     total cpu time spent up to now is       15.4 secs

     Self-consistent Calculation

     iteration #  1     ecut=    70.00 Ry     beta= 0.70
     Davidson diagonalization with overlap
     ethr =  1.00E-06,  avg # of iterations = 19.5

     total cpu time spent up to now is       16.0 secs

     total energy              =    -306.53806934 Ry
     estimated scf accuracy    <       0.24269672 Ry

     iteration #  2     ecut=    70.00 Ry     beta= 0.70
     Davidson diagonalization with overlap
     ethr =  1.10E-03,  avg # of iterations =  6.8

     total cpu time spent up to now is       16.3 secs

     total energy              =    -306.87794286 Ry
     estimated scf accuracy    <       0.39196404 Ry

     iteration #  3     ecut=    70.00 Ry     beta= 0.70
     Davidson diagonalization with overlap
     ethr =  1.10E-03,  avg # of iterations =  1.7

     total cpu time spent up to now is       16.4 secs

     total energy              =    -306.86625010 Ry
     estimated scf accuracy    <       0.11258810 Ry

     iteration #  4     ecut=    70.00 Ry     beta= 0.70
     Davidson diagonalization with overlap
     ethr =  5.12E-04,  avg # of iterations =  2.8

     total cpu time spent up to now is       16.6 secs

     total energy              =    -306.86189782 Ry
     estimated scf accuracy    <       0.04655996 Ry

     iteration #  5     ecut=    70.00 Ry     beta= 0.70
     Davidson diagonalization with overlap
     ethr =  2.12E-04,  avg # of iterations =  3.3

     total cpu time spent up to now is       16.8 secs

     total energy              =    -306.86709624 Ry
     estimated scf accuracy    <       0.01687255 Ry

     iteration #  6     ecut=    70.00 Ry     beta= 0.70
     Davidson diagonalization with overlap
     ethr =  7.67E-05,  avg # of iterations =  3.5

     total cpu time spent up to now is       16.9 secs

     total energy              =    -306.87048860 Ry
     estimated scf accuracy    <       0.00904927 Ry

     iteration #  7     ecut=    70.00 Ry     beta= 0.70
     Davidson diagonalization with overlap
     ethr =  4.11E-05,  avg # of iterations =  4.0

     total cpu time spent up to now is       17.1 secs

     total energy              =    -306.87309740 Ry
     estimated scf accuracy    <       0.00676380 Ry

     iteration #  8     ecut=    70.00 Ry     beta= 0.70
     Davidson diagonalization with overlap
     ethr =  3.07E-05,  avg # of iterations =  1.7

     total cpu time spent up to now is       17.3 secs

     total energy              =    -306.87610772 Ry
     estimated scf accuracy    <       0.00786308 Ry

     iteration #  9     ecut=    70.00 Ry     beta= 0.70
     Davidson diagonalization with overlap
     ethr =  3.07E-05,  avg # of iterations =  1.0

     total cpu time spent up to now is       17.4 secs

     total energy              =    -306.87576477 Ry
     estimated scf accuracy    <       0.01243735 Ry

     iteration # 10     ecut=    70.00 Ry     beta= 0.70
     Davidson diagonalization with overlap
     ethr =  3.07E-05,  avg # of iterations =  1.0

     total cpu time spent up to now is       17.6 secs

     total energy              =    -306.87127768 Ry
     estimated scf accuracy    <       0.01145827 Ry

     iteration # 11     ecut=    70.00 Ry     beta= 0.70
     Davidson diagonalization with overlap
     ethr =  3.07E-05,  avg # of iterations =  2.0

     total cpu time spent up to now is       17.7 secs

     total energy              =    -306.87093619 Ry
     estimated scf accuracy    <       0.00410353 Ry

     iteration # 12     ecut=    70.00 Ry     beta= 0.70
     Davidson diagonalization with overlap
     ethr =  1.87E-05,  avg # of iterations =  2.0

     total cpu time spent up to now is       17.9 secs

     total energy              =    -306.87120882 Ry
     estimated scf accuracy    <       0.00219844 Ry

     iteration # 13     ecut=    70.00 Ry     beta= 0.70
     Davidson diagonalization with overlap
     ethr =  9.99E-06,  avg # of iterations =  2.0

     total cpu time spent up to now is       18.1 secs

     total energy              =    -306.87009079 Ry
     estimated scf accuracy    <       0.00189262 Ry

     iteration # 14     ecut=    70.00 Ry     beta= 0.70
     Davidson diagonalization with overlap
     ethr =  8.60E-06,  avg # of iterations =  5.3

     total cpu time spent up to now is       18.3 secs

     total energy              =    -306.87110723 Ry
     estimated scf accuracy    <       0.00007179 Ry

     iteration # 15     ecut=    70.00 Ry     beta= 0.70
     Davidson diagonalization with overlap
     ethr =  3.26E-07,  avg # of iterations =  8.8

     total cpu time spent up to now is       18.6 secs

     total energy              =    -306.87129413 Ry
     estimated scf accuracy    <       0.00021226 Ry

     iteration # 16     ecut=    70.00 Ry     beta= 0.70
     Davidson diagonalization with overlap
     ethr =  3.26E-07,  avg # of iterations =  1.3

     total cpu time spent up to now is       18.7 secs

     total energy              =    -306.87127342 Ry
     estimated scf accuracy    <       0.00026288 Ry

     iteration # 17     ecut=    70.00 Ry     beta= 0.70
     Davidson diagonalization with overlap
     ethr =  3.26E-07,  avg # of iterations =  1.0

     total cpu time spent up to now is       18.9 secs

     total energy              =    -306.87106667 Ry
     estimated scf accuracy    <       0.00022786 Ry

     iteration # 18     ecut=    70.00 Ry     beta= 0.70
     Davidson diagonalization with overlap
     ethr =  3.26E-07,  avg # of iterations =  7.3

     total cpu time spent up to now is       19.1 secs

     total energy              =    -306.87123630 Ry
     estimated scf accuracy    <       0.00030911 Ry

     iteration # 19     ecut=    70.00 Ry     beta= 0.70
     Davidson diagonalization with overlap
     ethr =  3.26E-07,  avg # of iterations =  1.0

     total cpu time spent up to now is       19.3 secs

     total energy              =    -306.87116475 Ry
     estimated scf accuracy    <       0.00019127 Ry

     iteration # 20     ecut=    70.00 Ry     beta= 0.70
     Davidson diagonalization with overlap
     ethr =  3.26E-07,  avg # of iterations =  3.3

     total cpu time spent up to now is       19.4 secs

     total energy              =    -306.87118806 Ry
     estimated scf accuracy    <       0.00005668 Ry

     iteration # 21     ecut=    70.00 Ry     beta= 0.70
     Davidson diagonalization with overlap
     ethr =  2.58E-07,  avg # of iterations =  1.3

     total cpu time spent up to now is       19.6 secs

     total energy              =    -306.87117425 Ry
     estimated scf accuracy    <       0.00006773 Ry

     iteration # 22     ecut=    70.00 Ry     beta= 0.70
     Davidson diagonalization with overlap
     ethr =  2.58E-07,  avg # of iterations =  1.5

     total cpu time spent up to now is       19.8 secs

     total energy              =    -306.87117349 Ry
     estimated scf accuracy    <       0.00003886 Ry

     iteration # 23     ecut=    70.00 Ry     beta= 0.70
     Davidson diagonalization with overlap
     ethr =  1.77E-07,  avg # of iterations =  3.8

     total cpu time spent up to now is       19.9 secs

     total energy              =    -306.87118282 Ry
     estimated scf accuracy    <       0.00001780 Ry

     iteration # 24     ecut=    70.00 Ry     beta= 0.70
     Davidson diagonalization with overlap
     ethr =  8.09E-08,  avg # of iterations =  1.3

     total cpu time spent up to now is       20.1 secs

     total energy              =    -306.87119135 Ry
     estimated scf accuracy    <       0.00002356 Ry

     iteration # 25     ecut=    70.00 Ry     beta= 0.70
     Davidson diagonalization with overlap
     ethr =  8.09E-08,  avg # of iterations =  1.3

     total cpu time spent up to now is       20.2 secs

     total energy              =    -306.87119759 Ry
     estimated scf accuracy    <       0.00003780 Ry

     iteration # 26     ecut=    70.00 Ry     beta= 0.70
     Davidson diagonalization with overlap
     ethr =  8.09E-08,  avg # of iterations =  1.7

     total cpu time spent up to now is       20.4 secs

     total energy              =    -306.87116166 Ry
     estimated scf accuracy    <       0.00004980 Ry

     iteration # 27     ecut=    70.00 Ry     beta= 0.70
     Davidson diagonalization with overlap
     ethr =  8.09E-08,  avg # of iterations =  5.5

     total cpu time spent up to now is       20.6 secs

     total energy              =    -306.87117659 Ry
     estimated scf accuracy    <       0.00000283 Ry

     iteration # 28     ecut=    70.00 Ry     beta= 0.70
     Davidson diagonalization with overlap
     ethr =  1.29E-08,  avg # of iterations =  3.2

     total cpu time spent up to now is       20.8 secs

     total energy              =    -306.87117676 Ry
     estimated scf accuracy    <       0.00000158 Ry

     iteration # 29     ecut=    70.00 Ry     beta= 0.70
     Davidson diagonalization with overlap
     ethr =  7.19E-09,  avg # of iterations =  2.0

     total cpu time spent up to now is       21.0 secs

     total energy              =    -306.87117532 Ry
     estimated scf accuracy    <       0.00000129 Ry

     iteration # 30     ecut=    70.00 Ry     beta= 0.70
     Davidson diagonalization with overlap
     ethr =  5.85E-09,  avg # of iterations =  2.5

     total cpu time spent up to now is       21.1 secs

     total energy              =    -306.87117541 Ry
     estimated scf accuracy    <       0.00000019 Ry

     iteration # 31     ecut=    70.00 Ry     beta= 0.70
     Davidson diagonalization with overlap
     ethr =  8.78E-10,  avg # of iterations =  7.8

     total cpu time spent up to now is       21.3 secs

     total energy              =    -306.87117566 Ry
     estimated scf accuracy    <          1.2E-09 Ry

     iteration # 32     ecut=    70.00 Ry     beta= 0.70
     Davidson diagonalization with overlap
     ethr =  5.44E-12,  avg # of iterations = 17.7

     total cpu time spent up to now is       21.8 secs

     total energy              =    -306.87117568 Ry
     estimated scf accuracy    <          4.5E-10 Ry

     iteration # 33     ecut=    70.00 Ry     beta= 0.70
     Davidson diagonalization with overlap
     ethr =  2.06E-12,  avg # of iterations =  8.0

     total cpu time spent up to now is       22.1 secs

     total energy              =    -306.87117568 Ry
     estimated scf accuracy    <          3.3E-09 Ry

     iteration # 34     ecut=    70.00 Ry     beta= 0.70
     Davidson diagonalization with overlap
     ethr =  2.06E-12,  avg # of iterations =  7.5

     total cpu time spent up to now is       22.3 secs

     End of self-consistent calculation

          k = 0.0000 0.0000 0.0000 (  3381 PWs)   bands (ev):

   -38.9678 -38.8739 -18.0996 -17.7130 -17.7130 -17.6340 -17.6340 -17.5518
     4.5361   7.9646  10.4979  11.3647  11.3647  11.6019  11.8309

          k =-0.0000 0.0000-0.3242 (  3326 PWs)   bands (ev):

   -38.9210 -38.9210 -17.8314 -17.8314 -17.6736 -17.6736 -17.6736 -17.6736
     6.1214   6.1214  10.7047  10.7047  11.2958  11.2958  11.2958

          k =-0.0000 0.3939-0.0000 (  3326 PWs)   bands (ev):

   -38.9120 -38.8581 -17.9796 -17.9452 -17.8945 -17.7956 -17.6735 -17.6320
     6.7533   9.0012   9.2602   9.8304  11.3008  11.3086  11.3824

          k =-0.0000 0.3939-0.3242 (  3338 PWs)   bands (ev):

   -38.8851 -38.8851 -18.0182 -18.0182 -17.7349 -17.7349 -17.7071 -17.7071
     7.7437   7.7437   9.9135   9.9135  10.9423  10.9423  12.1841

          k = 0.3412 0.5909-0.0000 (  3360 PWs)   bands (ev):

   -38.8671 -38.8671 -18.0024 -17.9192 -17.9192 -17.8260 -17.7699 -17.7699
     9.0435   9.0435   9.1725   9.1831  10.7947  10.7947  11.9076

          k = 0.3412 0.5909-0.3242 (  3336 PWs)   bands (ev):

   -38.8670 -38.8670 -18.0228 -18.0228 -17.9149 -17.9149 -17.6632 -17.6632
     9.3423   9.3423   9.5807   9.5807  10.0374  10.0374  12.2237

     the Fermi energy is     9.7826 ev

!    total energy              =    -306.87117568 Ry
     total all-electron energy =     -3050.011946 Ry
     estimated scf accuracy    <          3.0E-11 Ry
     smearing contrib. (-TS)   =      -0.00183778 Ry
     internal energy E=F+TS    =    -306.86933790 Ry

     The total energy is F=E-TS. E is the sum of the following terms:
     one-electron contribution =     -69.33760637 Ry
     hartree contribution      =      40.71936651 Ry
     xc contribution           =     -34.64609835 Ry
     ewald contribution        =    -129.85138872 Ry
     one-center paw contrib.   =    -113.75361096 Ry

     convergence has been achieved in  34 iterations

     Forces acting on atoms (cartesian axes, Ry/au):

     atom    1 type  1   force =    -0.00000000   -0.00000000    0.00000000
     atom    2 type  1   force =     0.00000000    0.00000000   -0.00000000
     The non-local contrib.  to forces
     atom    1 type  1   force =     0.00000000   -0.00000000    0.00000000
     atom    2 type  1   force =    -0.00000000    0.00000000   -0.00000000
     The ionic contribution  to forces
     atom    1 type  1   force =     0.00000000   -0.00000000   -0.00000000
     atom    2 type  1   force =    -0.00000000    0.00000000   -0.00000000
     The local contribution  to forces
     atom    1 type  1   force =     0.00000000    0.00000000    0.00000000
     atom    2 type  1   force =    -0.00000000    0.00000000    0.00000000
     The core correction contribution to forces
     atom    1 type  1   force =    -0.00000000   -0.00000000    0.00000000
     atom    2 type  1   force =     0.00000000   -0.00000000    0.00000000
     The Hubbard contrib.    to forces
     atom    1 type  1   force =     0.00000000    0.00000000    0.00000000
     atom    2 type  1   force =     0.00000000    0.00000000    0.00000000
     The SCF correction term to forces
     atom    1 type  1   force =    -0.00000000   -0.00000000    0.00000000
     atom    2 type  1   force =    -0.00000000   -0.00000000    0.00000000

     Total force =     0.000000     Total SCF correction =     0.000000


     Computing stress (Cartesian axis) and pressure

          total   stress  (Ry/bohr**3)                   (kbar)     P=      -24.27
  -0.00013813  -0.00000000   0.00000000          -20.32       -0.00        0.00
  -0.00000000  -0.00013813   0.00000000           -0.00      -20.32        0.00
   0.00000000   0.00000000  -0.00021872            0.00        0.00      -32.18

     Energy error            =      3.9E-03 Ry
     Gradient error          =      2.2E-27 Ry/Bohr
     Cell gradient error     =      3.2E+01 kbar

     number of scf cycles    =   3
     number of bfgs steps    =   2

     enthalpy           old  =    -306.8672633891 Ry
     enthalpy           new  =    -306.8711756826 Ry

     CASE: enthalpy          _new < enthalpy          _old

     new trust radius        =       0.0711819401 bohr
     new conv_thr            =            1.0E-10 Ry

     new unit-cell volume =    297.49622 a.u.^3 (    44.08439 Ang^3 )
     density =      3.35962 g/cm^3

CELL_PARAMETERS (alat=  6.25310370)
   0.964282810  -0.000000000   0.000000000
  -0.482141405   0.835093410   0.000000000
   0.000000000   0.000000000   1.510967342

ATOMIC_POSITIONS (crystal)
Sc           -0.0000000000       -0.0000000000        0.0000000000
Sc            0.6666666667        0.3333333333        0.5000000000



     Writing config-only to output data dir sc_vcrelax.out/scandium.save/
     NEW-OLD atomic charge density approx. for the potential

     Check: negative core charge=   -0.000013
     extrapolated charge   20.94759, renormalised to   22.00000

     total cpu time spent up to now is       25.3 secs

     Self-consistent Calculation

     iteration #  1     ecut=    70.00 Ry     beta= 0.70
     Davidson diagonalization with overlap
     ethr =  1.00E-06,  avg # of iterations = 21.2

     total cpu time spent up to now is       25.9 secs

     total energy              =    -306.57770333 Ry
     estimated scf accuracy    <       0.21133556 Ry

     iteration #  2     ecut=    70.00 Ry     beta= 0.70
     Davidson diagonalization with overlap
     ethr =  9.61E-04,  avg # of iterations =  6.8

     total cpu time spent up to now is       26.2 secs

     total energy              =    -306.87819323 Ry
     estimated scf accuracy    <       0.33406599 Ry

     iteration #  3     ecut=    70.00 Ry     beta= 0.70
     Davidson diagonalization with overlap
     ethr =  9.61E-04,  avg # of iterations =  1.3

     total cpu time spent up to now is       26.3 secs

     total energy              =    -306.86420642 Ry
     estimated scf accuracy    <       0.10263185 Ry

     iteration #  4     ecut=    70.00 Ry     beta= 0.70
     Davidson diagonalization with overlap
     ethr =  4.67E-04,  avg # of iterations =  2.7

     total cpu time spent up to now is       26.5 secs

     total energy              =    -306.86948998 Ry
     estimated scf accuracy    <       0.03928990 Ry

     iteration #  5     ecut=    70.00 Ry     beta= 0.70
     Davidson diagonalization with overlap
     ethr =  1.79E-04,  avg # of iterations =  2.8

     total cpu time spent up to now is       26.7 secs

     total energy              =    -306.86912976 Ry
     estimated scf accuracy    <       0.02212939 Ry

     iteration #  6     ecut=    70.00 Ry     beta= 0.70
     Davidson diagonalization with overlap
     ethr =  1.01E-04,  avg # of iterations =  2.5

     total cpu time spent up to now is       26.8 secs

     total energy              =    -306.87040981 Ry
     estimated scf accuracy    <       0.01226963 Ry

     iteration #  7     ecut=    70.00 Ry     beta= 0.70
     Davidson diagonalization with overlap
     ethr =  5.58E-05,  avg # of iterations =  4.0

     total cpu time spent up to now is       27.0 secs

     total energy              =    -306.87288724 Ry
     estimated scf accuracy    <       0.00757401 Ry

     iteration #  8     ecut=    70.00 Ry     beta= 0.70
     Davidson diagonalization with overlap
     ethr =  3.44E-05,  avg # of iterations =  1.8

     total cpu time spent up to now is       27.2 secs

     total energy              =    -306.87349013 Ry
     estimated scf accuracy    <       0.00640013 Ry

     iteration #  9     ecut=    70.00 Ry     beta= 0.70
     Davidson diagonalization with overlap
     ethr =  2.91E-05,  avg # of iterations =  1.2

     total cpu time spent up to now is       27.3 secs

     total energy              =    -306.87410854 Ry
     estimated scf accuracy    <       0.00630063 Ry

     iteration # 10     ecut=    70.00 Ry     beta= 0.70
     Davidson diagonalization with overlap
     ethr =  2.86E-05,  avg # of iterations =  1.2

     total cpu time spent up to now is       27.5 secs

     total energy              =    -306.87415594 Ry
     estimated scf accuracy    <       0.00671795 Ry

     iteration # 11     ecut=    70.00 Ry     beta= 0.70
     Davidson diagonalization with overlap
     ethr =  2.86E-05,  avg # of iterations =  1.0

     total cpu time spent up to now is       27.6 secs

     total energy              =    -306.87167911 Ry
     estimated scf accuracy    <       0.00643357 Ry

     iteration # 12     ecut=    70.00 Ry     beta= 0.70
     Davidson diagonalization with overlap
     ethr =  2.86E-05,  avg # of iterations =  1.7

     total cpu time spent up to now is       27.8 secs

     total energy              =    -306.87292856 Ry
     estimated scf accuracy    <       0.00221640 Ry

     iteration # 13     ecut=    70.00 Ry     beta= 0.70
     Davidson diagonalization with overlap
     ethr =  1.01E-05,  avg # of iterations =  3.0

     total cpu time spent up to now is       27.9 secs

     total energy              =    -306.87226630 Ry
     estimated scf accuracy    <       0.00340535 Ry

     iteration # 14     ecut=    70.00 Ry     beta= 0.70
     Davidson diagonalization with overlap
     ethr =  1.01E-05,  avg # of iterations =  1.3

     total cpu time spent up to now is       28.1 secs

     total energy              =    -306.87068639 Ry
     estimated scf accuracy    <       0.00195167 Ry

     iteration # 15     ecut=    70.00 Ry     beta= 0.70
     Davidson diagonalization with overlap
     ethr =  8.87E-06,  avg # of iterations =  7.5

     total cpu time spent up to now is       28.3 secs

     total energy              =    -306.87288929 Ry
     estimated scf accuracy    <       0.00221017 Ry

     iteration # 16     ecut=    70.00 Ry     beta= 0.70
     Davidson diagonalization with overlap
     ethr =  8.87E-06,  avg # of iterations =  2.0

     total cpu time spent up to now is       28.5 secs

     total energy              =    -306.87238791 Ry
     estimated scf accuracy    <       0.00170543 Ry

     iteration # 17     ecut=    70.00 Ry     beta= 0.70
     Davidson diagonalization with overlap
     ethr =  7.75E-06,  avg # of iterations =  1.2

     total cpu time spent up to now is       28.7 secs

     total energy              =    -306.87198396 Ry
     estimated scf accuracy    <       0.00077742 Ry

     iteration # 18     ecut=    70.00 Ry     beta= 0.70
     Davidson diagonalization with overlap
     ethr =  3.53E-06,  avg # of iterations =  4.0

     total cpu time spent up to now is       28.8 secs

     total energy              =    -306.87225425 Ry
     estimated scf accuracy    <       0.00000133 Ry

     iteration # 19     ecut=    70.00 Ry     beta= 0.70
     Davidson diagonalization with overlap
     ethr =  6.05E-09,  avg # of iterations = 19.3

     total cpu time spent up to now is       29.4 secs

     total energy              =    -306.87228530 Ry
     estimated scf accuracy    <       0.00022805 Ry

     iteration # 20     ecut=    70.00 Ry     beta= 0.70
     Davidson diagonalization with overlap
     ethr =  6.05E-09,  avg # of iterations = 11.7

     total cpu time spent up to now is       29.7 secs

     total energy              =    -306.87229354 Ry
     estimated scf accuracy    <       0.00004277 Ry

     iteration # 21     ecut=    70.00 Ry     beta= 0.70
     Davidson diagonalization with overlap
     ethr =  6.05E-09,  avg # of iterations =  5.2

     total cpu time spent up to now is       29.9 secs

     total energy              =    -306.87228336 Ry
     estimated scf accuracy    <       0.00002466 Ry

     iteration # 22     ecut=    70.00 Ry     beta= 0.70
     Davidson diagonalization with overlap
     ethr =  6.05E-09,  avg # of iterations =  8.0

     total cpu time spent up to now is       30.1 secs

     total energy              =    -306.87228395 Ry
     estimated scf accuracy    <       0.00000304 Ry

     iteration # 23     ecut=    70.00 Ry     beta= 0.70
     Davidson diagonalization with overlap
     ethr =  6.05E-09,  avg # of iterations =  5.3

     total cpu time spent up to now is       30.4 secs

     total energy              =    -306.87228487 Ry
     estimated scf accuracy    <       0.00000001 Ry

     iteration # 24     ecut=    70.00 Ry     beta= 0.70
     Davidson diagonalization with overlap
     ethr =  6.39E-11,  avg # of iterations = 13.3

     total cpu time spent up to now is       30.8 secs

     total energy              =    -306.87228503 Ry
     estimated scf accuracy    <       0.00000001 Ry

     iteration # 25     ecut=    70.00 Ry     beta= 0.70
     Davidson diagonalization with overlap
     ethr =  5.25E-11,  avg # of iterations =  5.8

     total cpu time spent up to now is       31.0 secs

     total energy              =    -306.87228503 Ry
     estimated scf accuracy    <       0.00000001 Ry

     iteration # 26     ecut=    70.00 Ry     beta= 0.70
     Davidson diagonalization with overlap
     ethr =  5.25E-11,  avg # of iterations =  5.5

     total cpu time spent up to now is       31.2 secs

     total energy              =    -306.87228504 Ry
     estimated scf accuracy    <          9.4E-09 Ry

     iteration # 27     ecut=    70.00 Ry     beta= 0.70
     Davidson diagonalization with overlap
     ethr =  4.27E-11,  avg # of iterations =  1.5

     total cpu time spent up to now is       31.3 secs

     total energy              =    -306.87228504 Ry
     estimated scf accuracy    <          3.6E-09 Ry

     iteration # 28     ecut=    70.00 Ry     beta= 0.70
     Davidson diagonalization with overlap
     ethr =  1.64E-11,  avg # of iterations =  6.2

     total cpu time spent up to now is       31.5 secs

     total energy              =    -306.87228504 Ry
     estimated scf accuracy    <          7.9E-10 Ry

     iteration # 29     ecut=    70.00 Ry     beta= 0.70
     Davidson diagonalization with overlap
     ethr =  3.61E-12,  avg # of iterations =  5.3

     total cpu time spent up to now is       31.7 secs

     End of self-consistent calculation

          k = 0.0000 0.0000 0.0000 (  3381 PWs)   bands (ev):

   -38.2909 -38.1739 -17.4746 -17.0153 -17.0153 -16.9210 -16.9210 -16.8281
     5.0351   8.4766  11.2538  11.9776  11.9776  12.2834  12.4875

          k = 0.0000 0.0000-0.3309 (  3326 PWs)   bands (ev):

   -38.2327 -38.2327 -17.1590 -17.1590 -16.9683 -16.9683 -16.9683 -16.9683
     6.6908   6.6908  11.3304  11.3304  11.8961  11.8962  11.8962

          k = 0.0000 0.3992-0.0000 (  3326 PWs)   bands (ev):

   -38.2236 -38.1564 -17.3212 -17.2938 -17.2187 -17.1107 -16.9644 -16.9241
     7.3139   9.5007   9.8146  10.3932  11.9643  11.9652  11.9744

          k = 0.0000 0.3992-0.3309 (  3338 PWs)   bands (ev):

   -38.1900 -38.1900 -17.3711 -17.3711 -17.0381 -17.0381 -17.0072 -17.0072
     8.3043   8.3043  10.4764  10.4764  11.5761  11.5761  12.8338

          k = 0.3457 0.5987-0.0000 (  3360 PWs)   bands (ev):

   -38.1687 -38.1687 -17.3493 -17.2495 -17.2495 -17.1370 -17.0874 -17.0874
     9.5965   9.5965   9.6651   9.7219  11.4147  11.4147  12.6033

          k = 0.3457 0.5987-0.3309 (  3336 PWs)   bands (ev):

   -38.1686 -38.1686 -17.3776 -17.3776 -17.2443 -17.2443 -16.9549 -16.9549
     9.8812   9.8812  10.1323  10.1323  10.6514  10.6514  12.9081

     the Fermi energy is    10.3479 ev

!    total energy              =    -306.87228504 Ry
     total all-electron energy =     -3050.013056 Ry
     estimated scf accuracy    <          5.6E-12 Ry
     smearing contrib. (-TS)   =      -0.00204590 Ry
     internal energy E=F+TS    =    -306.87023914 Ry

     The total energy is F=E-TS. E is the sum of the following terms:
     one-electron contribution =     -66.28294784 Ry
     hartree contribution      =      39.75726979 Ry
     xc contribution           =     -34.71109884 Ry
     ewald contribution        =    -131.88040657 Ry
     one-center paw contrib.   =    -113.75305567 Ry

     convergence has been achieved in  29 iterations

     Forces acting on atoms (cartesian axes, Ry/au):

     atom    1 type  1   force =     0.00000000    0.00000000   -0.00000000
     atom    2 type  1   force =    -0.00000000   -0.00000000    0.00000000
     The non-local contrib.  to forces
     atom    1 type  1   force =    -0.00000000   -0.00000000    0.00000000
     atom    2 type  1   force =    -0.00000000   -0.00000000    0.00000000
     The ionic contribution  to forces
     atom    1 type  1   force =     0.00000000   -0.00000000   -0.00000000
     atom    2 type  1   force =    -0.00000000    0.00000000   -0.00000000
     The local contribution  to forces
     atom    1 type  1   force =     0.00000000    0.00000000    0.00000000
     atom    2 type  1   force =    -0.00000000    0.00000000    0.00000000
     The core correction contribution to forces
     atom    1 type  1   force =    -0.00000000   -0.00000000    0.00000000
     atom    2 type  1   force =     0.00000000   -0.00000000    0.00000000
     The Hubbard contrib.    to forces
     atom    1 type  1   force =     0.00000000    0.00000000    0.00000000
     atom    2 type  1   force =     0.00000000    0.00000000    0.00000000
     The SCF correction term to forces
     atom    1 type  1   force =    -0.00000000    0.00000000   -0.00000000
     atom    2 type  1   force =     0.00000000   -0.00000000   -0.00000000

     Total force =     0.000000     Total SCF correction =     0.000000


     Computing stress (Cartesian axis) and pressure

          total   stress  (Ry/bohr**3)                   (kbar)     P=        3.28
   0.00002717  -0.00000000  -0.00000000            4.00       -0.00       -0.00
  -0.00000000   0.00002717  -0.00000000           -0.00        4.00       -0.00
  -0.00000000  -0.00000000   0.00001264           -0.00       -0.00        1.86

     Energy error            =      1.1E-03 Ry
     Gradient error          =      6.4E-28 Ry/Bohr
     Cell gradient error     =      4.0E+00 kbar

     number of scf cycles    =   4
     number of bfgs steps    =   3

     enthalpy           old  =    -306.8711756826 Ry
     enthalpy           new  =    -306.8722850390 Ry

     CASE: enthalpy          _new < enthalpy          _old

     new trust radius        =       0.0063499920 bohr
     new conv_thr            =            1.0E-10 Ry

     new unit-cell volume =    298.99956 a.u.^3 (    44.30716 Ang^3 )
     density =      3.34273 g/cm^3

CELL_PARAMETERS (alat=  6.25310370)
   0.965827619  -0.000000000   0.000000000
  -0.482913810   0.836431254   0.000000000
   0.000000000   0.000000000   1.513748704

ATOMIC_POSITIONS (crystal)
Sc           -0.0000000000       -0.0000000000       -0.0000000000
Sc            0.6666666667        0.3333333333        0.5000000000



     Writing config-only to output data dir sc_vcrelax.out/scandium.save/
     NEW-OLD atomic charge density approx. for the potential

     Check: negative core charge=   -0.000013
     extrapolated charge   22.11059, renormalised to   22.00000

     total cpu time spent up to now is       34.7 secs

     Self-consistent Calculation

     iteration #  1     ecut=    70.00 Ry     beta= 0.70
     Davidson diagonalization with overlap
     ethr =  1.00E-06,  avg # of iterations =  7.7

     total cpu time spent up to now is       35.0 secs

     total energy              =    -306.87020548 Ry
     estimated scf accuracy    <       0.00136542 Ry

     iteration #  2     ecut=    70.00 Ry     beta= 0.70
     Davidson diagonalization with overlap
     ethr =  6.21E-06,  avg # of iterations =  6.7

     total cpu time spent up to now is       35.3 secs

     total energy              =    -306.87235175 Ry
     estimated scf accuracy    <       0.00244964 Ry

     iteration #  3     ecut=    70.00 Ry     beta= 0.70
     Davidson diagonalization with overlap
     ethr =  6.21E-06,  avg # of iterations =  1.5

     total cpu time spent up to now is       35.4 secs

     total energy              =    -306.87226440 Ry
     estimated scf accuracy    <       0.00074338 Ry

     iteration #  4     ecut=    70.00 Ry     beta= 0.70
     Davidson diagonalization with overlap
     ethr =  3.38E-06,  avg # of iterations =  2.7

     total cpu time spent up to now is       35.6 secs

     total energy              =    -306.87223930 Ry
     estimated scf accuracy    <       0.00028145 Ry

     iteration #  5     ecut=    70.00 Ry     beta= 0.70
     Davidson diagonalization with overlap
     ethr =  1.28E-06,  avg # of iterations =  3.0

     total cpu time spent up to now is       35.7 secs

     total energy              =    -306.87224960 Ry
     estimated scf accuracy    <       0.00007822 Ry

     iteration #  6     ecut=    70.00 Ry     beta= 0.70
     Davidson diagonalization with overlap
     ethr =  3.56E-07,  avg # of iterations =  5.5

     total cpu time spent up to now is       35.9 secs

     total energy              =    -306.87229931 Ry
     estimated scf accuracy    <       0.00000098 Ry

     iteration #  7     ecut=    70.00 Ry     beta= 0.70
     Davidson diagonalization with overlap
     ethr =  4.44E-09,  avg # of iterations = 11.2

     total cpu time spent up to now is       36.3 secs

     total energy              =    -306.87230851 Ry
     estimated scf accuracy    <       0.00000434 Ry

     iteration #  8     ecut=    70.00 Ry     beta= 0.70
     Davidson diagonalization with overlap
     ethr =  4.44E-09,  avg # of iterations =  6.2

     total cpu time spent up to now is       36.5 secs

     total energy              =    -306.87231402 Ry
     estimated scf accuracy    <       0.00001506 Ry

     iteration #  9     ecut=    70.00 Ry     beta= 0.70
     Davidson diagonalization with overlap
     ethr =  4.44E-09,  avg # of iterations =  4.7

     total cpu time spent up to now is       36.7 secs

     total energy              =    -306.87231187 Ry
     estimated scf accuracy    <       0.00002733 Ry

     iteration # 10     ecut=    70.00 Ry     beta= 0.70
     Davidson diagonalization with overlap
     ethr =  4.44E-09,  avg # of iterations =  1.0

     total cpu time spent up to now is       36.8 secs

     total energy              =    -306.87230284 Ry
     estimated scf accuracy    <       0.00002381 Ry

     iteration # 11     ecut=    70.00 Ry     beta= 0.70
     Davidson diagonalization with overlap
     ethr =  4.44E-09,  avg # of iterations =  6.2

     total cpu time spent up to now is       37.1 secs

     total energy              =    -306.87230335 Ry
     estimated scf accuracy    <       0.00000542 Ry

     iteration # 12     ecut=    70.00 Ry     beta= 0.70
     Davidson diagonalization with overlap
     ethr =  4.44E-09,  avg # of iterations =  2.0

     total cpu time spent up to now is       37.2 secs

     total energy              =    -306.87230804 Ry
     estimated scf accuracy    <       0.00000349 Ry

     iteration # 13     ecut=    70.00 Ry     beta= 0.70
     Davidson diagonalization with overlap
     ethr =  4.44E-09,  avg # of iterations =  4.3

     total cpu time spent up to now is       37.4 secs

     total energy              =    -306.87230151 Ry
     estimated scf accuracy    <       0.00001474 Ry

     iteration # 14     ecut=    70.00 Ry     beta= 0.70
     Davidson diagonalization with overlap
     ethr =  4.44E-09,  avg # of iterations =  6.5

     total cpu time spent up to now is       37.6 secs

     total energy              =    -306.87230217 Ry
     estimated scf accuracy    <       0.00000160 Ry

     iteration # 15     ecut=    70.00 Ry     beta= 0.70
     Davidson diagonalization with overlap
     ethr =  4.44E-09,  avg # of iterations =  2.5

     total cpu time spent up to now is       37.8 secs

     total energy              =    -306.87230241 Ry
     estimated scf accuracy    <       0.00000031 Ry

     iteration # 16     ecut=    70.00 Ry     beta= 0.70
     Davidson diagonalization with overlap
     ethr =  1.41E-09,  avg # of iterations =  4.0

     total cpu time spent up to now is       38.0 secs

     total energy              =    -306.87230249 Ry
     estimated scf accuracy    <       0.00000018 Ry

     iteration # 17     ecut=    70.00 Ry     beta= 0.70
     Davidson diagonalization with overlap
     ethr =  8.40E-10,  avg # of iterations =  2.8

     total cpu time spent up to now is       38.2 secs

     total energy              =    -306.87230252 Ry
     estimated scf accuracy    <       0.00000015 Ry

     iteration # 18     ecut=    70.00 Ry     beta= 0.70
     Davidson diagonalization with overlap
     ethr =  6.61E-10,  avg # of iterations =  1.3

     total cpu time spent up to now is       38.3 secs

     total energy              =    -306.87230246 Ry
     estimated scf accuracy    <       0.00000015 Ry

     iteration # 19     ecut=    70.00 Ry     beta= 0.70
     Davidson diagonalization with overlap
     ethr =  6.61E-10,  avg # of iterations =  2.7

     total cpu time spent up to now is       38.5 secs

     total energy              =    -306.87230247 Ry
     estimated scf accuracy    <       0.00000003 Ry

     iteration # 20     ecut=    70.00 Ry     beta= 0.70
     Davidson diagonalization with overlap
     ethr =  1.32E-10,  avg # of iterations =  6.7

     total cpu time spent up to now is       38.7 secs

     total energy              =    -306.87230249 Ry
     estimated scf accuracy    <          6.7E-09 Ry

     iteration # 21     ecut=    70.00 Ry     beta= 0.70
     Davidson diagonalization with overlap
     ethr =  3.03E-11,  avg # of iterations =  4.2

     total cpu time spent up to now is       38.9 secs

     total energy              =    -306.87230250 Ry
     estimated scf accuracy    <       0.00000001 Ry

     iteration # 22     ecut=    70.00 Ry     beta= 0.70
     Davidson diagonalization with overlap
     ethr =  3.03E-11,  avg # of iterations =  1.5

     total cpu time spent up to now is       39.1 secs

     total energy              =    -306.87230249 Ry
     estimated scf accuracy    <       0.00000001 Ry

     iteration # 23     ecut=    70.00 Ry     beta= 0.70
     Davidson diagonalization with overlap
     ethr =  3.03E-11,  avg # of iterations =  1.0

     total cpu time spent up to now is       39.2 secs

     total energy              =    -306.87230249 Ry
     estimated scf accuracy    <          7.6E-09 Ry

     iteration # 24     ecut=    70.00 Ry     beta= 0.70
     Davidson diagonalization with overlap
     ethr =  3.03E-11,  avg # of iterations =  1.5

     total cpu time spent up to now is       39.4 secs

     total energy              =    -306.87230249 Ry
     estimated scf accuracy    <          5.7E-09 Ry

     iteration # 25     ecut=    70.00 Ry     beta= 0.70
     Davidson diagonalization with overlap
     ethr =  2.60E-11,  avg # of iterations =  1.0

     total cpu time spent up to now is       39.6 secs

     total energy              =    -306.87230250 Ry
     estimated scf accuracy    <          5.8E-09 Ry

     iteration # 26     ecut=    70.00 Ry     beta= 0.70
     Davidson diagonalization with overlap
     ethr =  2.60E-11,  avg # of iterations =  1.0

     total cpu time spent up to now is       39.7 secs

     total energy              =    -306.87230249 Ry
     estimated scf accuracy    <          6.7E-09 Ry

     iteration # 27     ecut=    70.00 Ry     beta= 0.70
     Davidson diagonalization with overlap
     ethr =  2.60E-11,  avg # of iterations =  1.3

     total cpu time spent up to now is       39.9 secs

     total energy              =    -306.87230249 Ry
     estimated scf accuracy    <          1.9E-09 Ry

     iteration # 28     ecut=    70.00 Ry     beta= 0.70
     Davidson diagonalization with overlap
     ethr =  8.42E-12,  avg # of iterations =  5.5

     total cpu time spent up to now is       40.0 secs

     total energy              =    -306.87230249 Ry
     estimated scf accuracy    <          3.2E-10 Ry

     iteration # 29     ecut=    70.00 Ry     beta= 0.70
     Davidson diagonalization with overlap
     ethr =  1.46E-12,  avg # of iterations =  6.2

     total cpu time spent up to now is       40.3 secs

     End of self-consistent calculation

          k = 0.0000 0.0000 0.0000 (  3381 PWs)   bands (ev):

   -38.3650 -38.2505 -17.5431 -17.0922 -17.0922 -16.9994 -16.9994 -16.9073
     4.9798   8.4212  11.1743  11.9097  11.9097  12.2118  12.4156

          k = 0.0000 0.0000-0.3303 (  3326 PWs)   bands (ev):

   -38.3080 -38.3080 -17.2326 -17.2326 -17.0459 -17.0459 -17.0459 -17.0459
     6.6290   6.6290  11.2637  11.2637  11.8290  11.8290  11.8290

          k = 0.0000 0.3985-0.0000 (  3326 PWs)   bands (ev):

   -38.2991 -38.2333 -17.3931 -17.3652 -17.2925 -17.1861 -17.0423 -17.0016
     7.2512   9.4455   9.7550  10.3300  11.8931  11.8941  11.9073

          k = 0.0000 0.3985-0.3303 (  3338 PWs)   bands (ev):

   -38.2663 -38.2663 -17.4420 -17.4420 -17.1147 -17.1147 -17.0838 -17.0838
     8.2429   8.2429  10.4146  10.4146  11.5069  11.5069  12.7606

          k = 0.3451 0.5978-0.0000 (  3360 PWs)   bands (ev):

   -38.2453 -38.2453 -17.4208 -17.3227 -17.3227 -17.2122 -17.1623 -17.1623
     9.5342   9.5342   9.6117   9.6605  11.3472  11.3472  12.5288

          k = 0.3451 0.5978-0.3303 (  3336 PWs)   bands (ev):

   -38.2452 -38.2452 -17.4483 -17.4483 -17.3176 -17.3176 -17.0324 -17.0324
     9.8215   9.8215  10.0716  10.0716  10.5835  10.5835  12.8339

     the Fermi energy is    10.2852 ev

!    total energy              =    -306.87230249 Ry
     total all-electron energy =     -3050.013073 Ry
     estimated scf accuracy    <          2.2E-11 Ry
     smearing contrib. (-TS)   =      -0.00201069 Ry
     internal energy E=F+TS    =    -306.87029180 Ry

     The total energy is F=E-TS. E is the sum of the following terms:
     one-electron contribution =     -66.61524412 Ry
     hartree contribution      =      39.86138211 Ry
     xc contribution           =     -34.70394446 Ry
     ewald contribution        =    -131.65935841 Ry
     one-center paw contrib.   =    -113.75312692 Ry

     convergence has been achieved in  29 iterations

     Forces acting on atoms (cartesian axes, Ry/au):

     atom    1 type  1   force =    -0.00000000    0.00000000    0.00000000
     atom    2 type  1   force =     0.00000000    0.00000000   -0.00000000
     The non-local contrib.  to forces
     atom    1 type  1   force =    -0.00000000   -0.00000000   -0.00000000
     atom    2 type  1   force =     0.00000000    0.00000000   -0.00000000
     The ionic contribution  to forces
     atom    1 type  1   force =     0.00000000   -0.00000000   -0.00000000
     atom    2 type  1   force =    -0.00000000    0.00000000   -0.00000000
     The local contribution  to forces
     atom    1 type  1   force =     0.00000000    0.00000000    0.00000000
     atom    2 type  1   force =    -0.00000000    0.00000000    0.00000000
     The core correction contribution to forces
     atom    1 type  1   force =    -0.00000000   -0.00000000    0.00000000
     atom    2 type  1   force =     0.00000000   -0.00000000    0.00000000
     The Hubbard contrib.    to forces
     atom    1 type  1   force =     0.00000000    0.00000000    0.00000000
     atom    2 type  1   force =     0.00000000    0.00000000    0.00000000
     The SCF correction term to forces
     atom    1 type  1   force =     0.00000000    0.00000000   -0.00000000
     atom    2 type  1   force =     0.00000000   -0.00000000   -0.00000000

     Total force =     0.000000     Total SCF correction =     0.000000


     Computing stress (Cartesian axis) and pressure

          total   stress  (Ry/bohr**3)                   (kbar)     P=        0.14
   0.00000675   0.00000000  -0.00000000            0.99        0.00       -0.00
   0.00000000   0.00000675  -0.00000000            0.00        0.99       -0.00
  -0.00000000  -0.00000000  -0.00001071           -0.00       -0.00       -1.57

     Energy error            =      1.7E-05 Ry
     Gradient error          =      1.1E-27 Ry/Bohr
     Cell gradient error     =      1.6E+00 kbar

     number of scf cycles    =   5
     number of bfgs steps    =   4

     enthalpy           old  =    -306.8722850390 Ry
     enthalpy           new  =    -306.8723024928 Ry

     CASE: enthalpy          _new < enthalpy          _old

     new trust radius        =       0.0008774262 bohr
     new conv_thr            =            1.0E-10 Ry

     new unit-cell volume =    299.03869 a.u.^3 (    44.31296 Ang^3 )
     density =      3.34229 g/cm^3

CELL_PARAMETERS (alat=  6.25310370)
   0.966013368  -0.000000000   0.000000000
  -0.483006684   0.836592117   0.000000000
   0.000000000   0.000000000   1.513364644

ATOMIC_POSITIONS (crystal)
Sc           -0.0000000000       -0.0000000000        0.0000000000
Sc            0.6666666667        0.3333333333        0.5000000000



     Writing config-only to output data dir sc_vcrelax.out/scandium.save/
     NEW-OLD atomic charge density approx. for the potential

     Check: negative core charge=   -0.000013
     extrapolated charge   22.00288, renormalised to   22.00000

     total cpu time spent up to now is       43.3 secs

     Self-consistent Calculation

     iteration #  1     ecut=    70.00 Ry     beta= 0.70
     Davidson diagonalization with overlap
     ethr =  1.00E-06,  avg # of iterations =  2.0

     Threshold (ethr) on eigenvalues was too large:
     Diagonalizing with lowered threshold

     Davidson diagonalization with overlap
     ethr =  2.53E-09,  avg # of iterations =  9.2

     total cpu time spent up to now is       43.7 secs

     total energy              =    -306.87230246 Ry
     estimated scf accuracy    <       0.00000095 Ry

     iteration #  2     ecut=    70.00 Ry     beta= 0.70
     Davidson diagonalization with overlap
     ethr =  4.34E-09,  avg # of iterations =  6.7

     total cpu time spent up to now is       43.9 secs

     total energy              =    -306.87230385 Ry
     estimated scf accuracy    <       0.00000179 Ry

     iteration #  3     ecut=    70.00 Ry     beta= 0.70
     Davidson diagonalization with overlap
     ethr =  4.34E-09,  avg # of iterations =  1.8

     total cpu time spent up to now is       44.1 secs

     total energy              =    -306.87230369 Ry
     estimated scf accuracy    <       0.00000058 Ry

     iteration #  4     ecut=    70.00 Ry     beta= 0.70
     Davidson diagonalization with overlap
     ethr =  2.64E-09,  avg # of iterations =  3.5

     total cpu time spent up to now is       44.3 secs

     total energy              =    -306.87230384 Ry
     estimated scf accuracy    <       0.00000003 Ry

     iteration #  5     ecut=    70.00 Ry     beta= 0.70
     Davidson diagonalization with overlap
     ethr =  1.47E-10,  avg # of iterations =  8.8

     total cpu time spent up to now is       44.5 secs

     total energy              =    -306.87230390 Ry
     estimated scf accuracy    <       0.00000003 Ry

     iteration #  6     ecut=    70.00 Ry     beta= 0.70
     Davidson diagonalization with overlap
     ethr =  1.16E-10,  avg # of iterations =  1.3

     total cpu time spent up to now is       44.7 secs

     total energy              =    -306.87230388 Ry
     estimated scf accuracy    <       0.00000002 Ry

     iteration #  7     ecut=    70.00 Ry     beta= 0.70
     Davidson diagonalization with overlap
     ethr =  8.96E-11,  avg # of iterations =  2.0

     total cpu time spent up to now is       44.8 secs

     total energy              =    -306.87230389 Ry
     estimated scf accuracy    <          1.8E-09 Ry

     iteration #  8     ecut=    70.00 Ry     beta= 0.70
     Davidson diagonalization with overlap
     ethr =  8.09E-12,  avg # of iterations =  9.8

     total cpu time spent up to now is       45.1 secs

     total energy              =    -306.87230389 Ry
     estimated scf accuracy    <          8.9E-10 Ry

     iteration #  9     ecut=    70.00 Ry     beta= 0.70
     Davidson diagonalization with overlap
     ethr =  4.03E-12,  avg # of iterations =  3.3

     total cpu time spent up to now is       45.3 secs

     total energy              =    -306.87230389 Ry
     estimated scf accuracy    <          2.1E-09 Ry

     iteration # 10     ecut=    70.00 Ry     beta= 0.70
     Davidson diagonalization with overlap
     ethr =  4.03E-12,  avg # of iterations =  2.0

     total cpu time spent up to now is       45.5 secs

     total energy              =    -306.87230389 Ry
     estimated scf accuracy    <          4.1E-10 Ry

     iteration # 11     ecut=    70.00 Ry     beta= 0.70
     Davidson diagonalization with overlap
     ethr =  1.86E-12,  avg # of iterations =  4.2

     total cpu time spent up to now is       45.7 secs

     End of self-consistent calculation

          k = 0.0000 0.0000 0.0000 (  3381 PWs)   bands (ev):

   -38.3671 -38.2525 -17.5453 -17.0947 -17.0947 -17.0018 -17.0018 -16.9092
     4.9784   8.4202  11.1758  11.9073  11.9073  12.2126  12.4138

          k = 0.0000 0.0000-0.3304 (  3326 PWs)   bands (ev):

   -38.3101 -38.3101 -17.2347 -17.2347 -17.0484 -17.0484 -17.0484 -17.0484
     6.6284   6.6284  11.2638  11.2638  11.8260  11.8260  11.8260

          k = 0.0000 0.3984-0.0000 (  3326 PWs)   bands (ev):

   -38.3013 -38.2354 -17.3951 -17.3674 -17.2943 -17.1886 -17.0445 -17.0037
     7.2490   9.4436   9.7546  10.3272  11.8920  11.8938  11.9035

          k = 0.0000 0.3984-0.3304 (  3338 PWs)   bands (ev):

   -38.2684 -38.2684 -17.4441 -17.4441 -17.1170 -17.1170 -17.0857 -17.0857
     8.2416   8.2416  10.4130  10.4130  11.5055  11.5055  12.7570

          k = 0.3451 0.5977-0.0000 (  3360 PWs)   bands (ev):

   -38.2475 -38.2475 -17.4229 -17.3246 -17.3246 -17.2140 -17.1645 -17.1645
     9.5313   9.5313   9.6098   9.6581  11.3460  11.3460  12.5285

          k = 0.3451 0.5977-0.3304 (  3336 PWs)   bands (ev):

   -38.2474 -38.2474 -17.4505 -17.4505 -17.3195 -17.3195 -17.0344 -17.0344
     9.8196   9.8196  10.0699  10.0699  10.5816  10.5816  12.8325

     the Fermi energy is    10.2831 ev

!    total energy              =    -306.87230389 Ry
     total all-electron energy =     -3050.013075 Ry
     estimated scf accuracy    <          1.8E-11 Ry
     smearing contrib. (-TS)   =      -0.00199458 Ry
     internal energy E=F+TS    =    -306.87030931 Ry

     The total energy is F=E-TS. E is the sum of the following terms:
     one-electron contribution =     -66.62497373 Ry
     hartree contribution      =      39.86451496 Ry
     xc contribution           =     -34.70375868 Ry
     ewald contribution        =    -131.65295816 Ry
     one-center paw contrib.   =    -113.75313370 Ry

     convergence has been achieved in  11 iterations

     Forces acting on atoms (cartesian axes, Ry/au):

     atom    1 type  1   force =    -0.00000000   -0.00000000    0.00000000
     atom    2 type  1   force =     0.00000000    0.00000000   -0.00000000
     The non-local contrib.  to forces
     atom    1 type  1   force =     0.00000000    0.00000000    0.00000000
     atom    2 type  1   force =     0.00000000    0.00000000   -0.00000000
     The ionic contribution  to forces
     atom    1 type  1   force =     0.00000000   -0.00000000   -0.00000000
     atom    2 type  1   force =    -0.00000000    0.00000000   -0.00000000
     The local contribution  to forces
     atom    1 type  1   force =     0.00000000    0.00000000    0.00000000
     atom    2 type  1   force =    -0.00000000    0.00000000    0.00000000
     The core correction contribution to forces
     atom    1 type  1   force =    -0.00000000   -0.00000000   -0.00000000
     atom    2 type  1   force =     0.00000000   -0.00000000    0.00000000
     The Hubbard contrib.    to forces
     atom    1 type  1   force =     0.00000000    0.00000000    0.00000000
     atom    2 type  1   force =     0.00000000    0.00000000    0.00000000
     The SCF correction term to forces
     atom    1 type  1   force =    -0.00000000    0.00000000   -0.00000000
     atom    2 type  1   force =    -0.00000000    0.00000000   -0.00000000

     Total force =     0.000000     Total SCF correction =     0.000000


     Computing stress (Cartesian axis) and pressure

          total   stress  (Ry/bohr**3)                   (kbar)     P=        0.07
   0.00000499   0.00000000  -0.00000000            0.73        0.00       -0.00
  -0.00000000   0.00000499   0.00000000           -0.00        0.73        0.00
  -0.00000000   0.00000000  -0.00000846           -0.00        0.00       -1.24

     Energy error            =      1.4E-06 Ry
     Gradient error          =      6.4E-28 Ry/Bohr
     Cell gradient error     =      1.2E+00 kbar

     number of scf cycles    =   6
     number of bfgs steps    =   5

     enthalpy           old  =    -306.8723024928 Ry
     enthalpy           new  =    -306.8723038901 Ry

     CASE: enthalpy          _new < enthalpy          _old

     new trust radius        =       0.0009654770 bohr
     new conv_thr            =            1.0E-10 Ry

     new unit-cell volume =    299.05896 a.u.^3 (    44.31597 Ang^3 )
     density =      3.34206 g/cm^3

CELL_PARAMETERS (alat=  6.25310370)
   0.966180980  -0.000000000   0.000000000
  -0.483090490   0.836737273   0.000000000
   0.000000000   0.000000000   1.512942178

ATOMIC_POSITIONS (crystal)
Sc           -0.0000000000       -0.0000000000        0.0000000000
Sc            0.6666666667        0.3333333333        0.5000000000



     Writing config-only to output data dir sc_vcrelax.out/scandium.save/
     NEW-OLD atomic charge density approx. for the potential

     Check: negative core charge=   -0.000013
     extrapolated charge   22.00149, renormalised to   22.00000

     total cpu time spent up to now is       48.6 secs

     Self-consistent Calculation

     iteration #  1     ecut=    70.00 Ry     beta= 0.70
     Davidson diagonalization with overlap
     ethr =  1.00E-06,  avg # of iterations =  2.0

     Threshold (ethr) on eigenvalues was too large:
     Diagonalizing with lowered threshold

     Davidson diagonalization with overlap
     ethr =  1.07E-09,  avg # of iterations =  8.7

     total cpu time spent up to now is       49.0 secs

     total energy              =    -306.87230450 Ry
     estimated scf accuracy    <       0.00000030 Ry

     iteration #  2     ecut=    70.00 Ry     beta= 0.70
     Davidson diagonalization with overlap
     ethr =  1.36E-09,  avg # of iterations =  6.8

     total cpu time spent up to now is       49.3 secs

     total energy              =    -306.87230491 Ry
     estimated scf accuracy    <       0.00000051 Ry

     iteration #  3     ecut=    70.00 Ry     beta= 0.70
     Davidson diagonalization with overlap
     ethr =  1.36E-09,  avg # of iterations =  1.7

     total cpu time spent up to now is       49.4 secs

     total energy              =    -306.87230485 Ry
[...]
     ewald contribution        =    -131.64587539 Ry
     one-center paw contrib.   =    -113.75314231 Ry

     convergence has been achieved in  10 iterations

     Forces acting on atoms (cartesian axes, Ry/au):

     atom    1 type  1   force =     0.00000000    0.00000000    0.00000000
     atom    2 type  1   force =     0.00000000    0.00000000    0.00000000
     The non-local contrib.  to forces
     atom    1 type  1   force =    -0.00000000   -0.00000000   -0.00000000
     atom    2 type  1   force =     0.00000000    0.00000000    0.00000000
     The ionic contribution  to forces
     atom    1 type  1   force =     0.00000000   -0.00000000   -0.00000000
     atom    2 type  1   force =    -0.00000000    0.00000000   -0.00000000
     The local contribution  to forces
     atom    1 type  1   force =     0.00000000    0.00000000    0.00000000
     atom    2 type  1   force =    -0.00000000    0.00000000    0.00000000
     The core correction contribution to forces
     atom    1 type  1   force =    -0.00000000   -0.00000000    0.00000000
     atom    2 type  1   force =     0.00000000   -0.00000000    0.00000000
     The Hubbard contrib.    to forces
     atom    1 type  1   force =     0.00000000    0.00000000    0.00000000
     atom    2 type  1   force =     0.00000000    0.00000000    0.00000000
     The SCF correction term to forces
     atom    1 type  1   force =    -0.00000000    0.00000000   -0.00000000
     atom    2 type  1   force =    -0.00000000    0.00000000    0.00000000

     Total force =     0.000000     Total SCF correction =     0.000000


     Computing stress (Cartesian axis) and pressure

          total   stress  (Ry/bohr**3)                   (kbar)     P=       -0.02
   0.00000104   0.00000000  -0.00000000            0.15        0.00       -0.00
   0.00000000   0.00000104  -0.00000000            0.00        0.15       -0.00
  -0.00000000  -0.00000000  -0.00000244           -0.00       -0.00       -0.36

     Energy error            =      1.7E-06 Ry
     Gradient error          =      0.0E+00 Ry/Bohr
     Cell gradient error     =      3.6E-01 kbar

     bfgs converged in   8 scf cycles and   7 bfgs steps
     (criteria: energy <  1.0E-04 Ry, force <  1.0E-03 Ry/Bohr, cell <  5.0E-01 kbar)

     End of BFGS Geometry Optimization

     Final enthalpy           =    -306.8723066147 Ry

     File sc_vcrelax.out/scandium.bfgs deleted, as requested
Begin final coordinates
     new unit-cell volume =    299.07563 a.u.^3 (    44.31844 Ang^3 )
     density =      3.34188 g/cm^3

CELL_PARAMETERS (alat=  6.25310370)
   0.966410320  -0.000000000  -0.000000000
  -0.483205160   0.836935887   0.000000000
   0.000000000   0.000000000   1.512308479

ATOMIC_POSITIONS (crystal)
Sc           -0.0000000000       -0.0000000000        0.0000000000
Sc            0.6666666667        0.3333333333        0.5000000000
End final coordinates



     Writing config-only to output data dir sc_vcrelax.out/scandium.save/

     Final scf calculation at the relaxed structure.
     The G-vectors are recalculated for the final unit cell
     Results may differ from those at the preceding step.

     Parallelization info
     --------------------
     sticks:   dense  smooth     PW     G-vecs:    dense   smooth      PW
     Min         228     175     52                 8640     5911     958
     Max         229     176     54                 8647     5914     961
     Sum         913     703    211                34569    23649    3837

     Using Slab Decomposition



     bravais-lattice index     =            4
     lattice parameter (alat)  =       6.2531  a.u.
     unit-cell volume          =     299.0756 (a.u.)^3
     number of atoms/cell      =            2
     number of atomic types    =            1
     number of electrons       =        22.00
     number of Kohn-Sham states=           15
     kinetic-energy cutoff     =      70.0000  Ry
     charge density cutoff     =     360.0000  Ry
     scf convergence threshold =      1.0E-10
     mixing beta               =       0.7000
     number of iterations used =            8  plain     mixing
     press convergence thresh. =      5.0E-01
     Exchange-correlation= SLA  PZ   NOGX NOGC
                           (   1   1   0   0   0   0   0)

     celldm(1)=   6.253104  celldm(2)=   0.000000  celldm(3)=   1.594000
     celldm(4)=   0.000000  celldm(5)=   0.000000  celldm(6)=   0.000000

     crystal axes: (cart. coord. in units of alat)
               a(1) = (   0.966410  -0.000000  -0.000000 )  
               a(2) = (  -0.483205   0.836936   0.000000 )  
               a(3) = (   0.000000   0.000000   1.512308 )  

     reciprocal axes: (cart. coord. in units 2 pi/alat)
               b(1) = (  1.034757  0.597417 -0.000000 )  
               b(2) = (  0.000000  1.194835 -0.000000 )  
               b(3) = (  0.000000 -0.000000  0.661241 )  


     PseudoPot. # 1 for Sc read from file:
     ../../../Sc.pz-spn-kjpaw_psl.1.0.0.UPF
     MD5 check sum: 1f9095df0bb42a6568b4e9f256ff075f
     Pseudo is Projector augmented-wave + core cor, Zval = 11.0
     Generated using 'atomic' code by A. Dal Corso  v.7.1
     Shape of augmentation charge: PSQ
     Using radial grid of 1173 points,  6 beta functions with: 
                l(1) =   0
                l(2) =   0
                l(3) =   1
                l(4) =   1
                l(5) =   2
                l(6) =   2
     Q(r) pseudized with 0 coefficients 


     atomic species   valence    mass     pseudopotential
        Sc            11.00    44.59600     Sc( 1.00)

     24 Sym. Ops., with inversion, found (12 have fractional translation)



   Cartesian axes

     site n.     atom                  positions (alat units)
         1           Sc  tau(   1) = (  -0.0000000  -0.0000000  -0.0000000  )
         2           Sc  tau(   2) = (   0.4832052   0.2789786   0.7561542  )

     number of k points=     6  Marzari-Vanderbilt smearing, width (Ry)=  0.0200
                       cart. coord. in units 2pi/alat
        k(    1) = (   0.0000000   0.0000000   0.0000000), wk =   0.1111111
        k(    2) = (  -0.0000000   0.0000000  -0.3306204), wk =   0.1111111
        k(    3) = (   0.0000000   0.3982782  -0.0000000), wk =   0.6666667
        k(    4) = (   0.0000000   0.3982782  -0.3306204), wk =   0.6666667
        k(    5) = (   0.3449191   0.5974173  -0.0000000), wk =   0.2222222
        k(    6) = (   0.3449191   0.5974173  -0.3306204), wk =   0.2222222

     Dense  grid:    34569 G-vectors     FFT dimensions: (  45,  45,  60)

     Smooth grid:    23649 G-vectors     FFT dimensions: (  36,  36,  54)

     Estimated max dynamical RAM per process >      15.04 MB

     Estimated total dynamical RAM >     267.13 MB

     Check: negative core charge=   -0.000008

     Initial potential from superposition of free atoms

     starting charge      21.9956, renormalised to      22.0000
     Starting wfcs are   20 randomized atomic wfcs
     Checking if some PAW data can be deallocated... 

     total cpu time spent up to now is       59.1 secs

     Self-consistent Calculation

     iteration #  1     ecut=    70.00 Ry     beta= 0.70
     Davidson diagonalization with overlap
     c_bands:  1 eigenvalues not converged
     ethr =  1.00E-06,  avg # of iterations = 29.0

     total cpu time spent up to now is       59.9 secs

     total energy              =    -306.86720449 Ry
     estimated scf accuracy    <       0.01580788 Ry

     iteration #  2     ecut=    70.00 Ry     beta= 0.70
     Davidson diagonalization with overlap
     ethr =  7.19E-05,  avg # of iterations =  3.7

     total cpu time spent up to now is       60.0 secs

     total energy              =    -306.87078322 Ry
     estimated scf accuracy    <       0.00124587 Ry

     iteration #  3     ecut=    70.00 Ry     beta= 0.70
     Davidson diagonalization with overlap
     ethr =  5.66E-06,  avg # of iterations =  6.8

     total cpu time spent up to now is       60.3 secs

     total energy              =    -306.87150725 Ry
     estimated scf accuracy    <       0.00016860 Ry

     iteration #  4     ecut=    70.00 Ry     beta= 0.70
     Davidson diagonalization with overlap
     ethr =  7.66E-07,  avg # of iterations =  5.2

     total cpu time spent up to now is       60.5 secs

     total energy              =    -306.87161671 Ry
     estimated scf accuracy    <       0.00005842 Ry

     iteration #  5     ecut=    70.00 Ry     beta= 0.70
     Davidson diagonalization with overlap
     ethr =  2.66E-07,  avg # of iterations =  6.3

     total cpu time spent up to now is       60.7 secs

     total energy              =    -306.87165442 Ry
     estimated scf accuracy    <       0.00001998 Ry

     iteration #  6     ecut=    70.00 Ry     beta= 0.70
     Davidson diagonalization with overlap
     ethr =  9.08E-08,  avg # of iterations =  1.8

     total cpu time spent up to now is       60.8 secs

     total energy              =    -306.87164902 Ry
     estimated scf accuracy    <       0.00000971 Ry

     iteration #  7     ecut=    70.00 Ry     beta= 0.70
     Davidson diagonalization with overlap
     ethr =  4.41E-08,  avg # of iterations =  7.2

     total cpu time spent up to now is       61.0 secs

     total energy              =    -306.87165524 Ry
     estimated scf accuracy    <       0.00000097 Ry

     iteration #  8     ecut=    70.00 Ry     beta= 0.70
     Davidson diagonalization with overlap
     ethr =  4.42E-09,  avg # of iterations =  9.5

     total cpu time spent up to now is       61.3 secs

     total energy              =    -306.87165602 Ry
     estimated scf accuracy    <       0.00000141 Ry

     iteration #  9     ecut=    70.00 Ry     beta= 0.70
     Davidson diagonalization with overlap
     ethr =  4.42E-09,  avg # of iterations =  1.0

     total cpu time spent up to now is       61.4 secs

     total energy              =    -306.87165560 Ry
     estimated scf accuracy    <       0.00000127 Ry

     iteration # 10     ecut=    70.00 Ry     beta= 0.70
     Davidson diagonalization with overlap
     ethr =  4.42E-09,  avg # of iterations =  1.2

     total cpu time spent up to now is       61.5 secs

     total energy              =    -306.87165519 Ry
     estimated scf accuracy    <       0.00000055 Ry

     iteration # 11     ecut=    70.00 Ry     beta= 0.70
     Davidson diagonalization with overlap
     ethr =  2.50E-09,  avg # of iterations =  7.3

     total cpu time spent up to now is       61.8 secs

     total energy              =    -306.87165603 Ry
     estimated scf accuracy    <       0.00000069 Ry

     iteration # 12     ecut=    70.00 Ry     beta= 0.70
     Davidson diagonalization with overlap
     ethr =  2.50E-09,  avg # of iterations =  1.2

     total cpu time spent up to now is       61.9 secs

     total energy              =    -306.87165558 Ry
     estimated scf accuracy    <       0.00000102 Ry

     iteration # 13     ecut=    70.00 Ry     beta= 0.70
     Davidson diagonalization with overlap
     ethr =  2.50E-09,  avg # of iterations =  1.7

     total cpu time spent up to now is       62.1 secs

     total energy              =    -306.87165553 Ry
     estimated scf accuracy    <       0.00000029 Ry

     iteration # 14     ecut=    70.00 Ry     beta= 0.70
     Davidson diagonalization with overlap
     ethr =  1.33E-09,  avg # of iterations =  4.0

     total cpu time spent up to now is       62.2 secs

     total energy              =    -306.87165554 Ry
     estimated scf accuracy    <       0.00000006 Ry

     iteration # 15     ecut=    70.00 Ry     beta= 0.70
     Davidson diagonalization with overlap
     ethr =  2.93E-10,  avg # of iterations =  5.8

     total cpu time spent up to now is       62.4 secs

     total energy              =    -306.87165559 Ry
     estimated scf accuracy    <          9.1E-10 Ry

     iteration # 16     ecut=    70.00 Ry     beta= 0.70
     Davidson diagonalization with overlap
     ethr =  4.15E-12,  avg # of iterations = 17.5

     total cpu time spent up to now is       62.8 secs

     total energy              =    -306.87165560 Ry
     estimated scf accuracy    <          1.7E-09 Ry

     iteration # 17     ecut=    70.00 Ry     beta= 0.70
     Davidson diagonalization with overlap
     ethr =  4.15E-12,  avg # of iterations =  1.2

     total cpu time spent up to now is       62.9 secs

     total energy              =    -306.87165560 Ry
     estimated scf accuracy    <          1.1E-09 Ry

     iteration # 18     ecut=    70.00 Ry     beta= 0.70
     Davidson diagonalization with overlap
     ethr =  4.15E-12,  avg # of iterations =  1.2

     total cpu time spent up to now is       63.1 secs

     total energy              =    -306.87165560 Ry
     estimated scf accuracy    <          1.2E-09 Ry

     iteration # 19     ecut=    70.00 Ry     beta= 0.70
     Davidson diagonalization with overlap
     ethr =  4.15E-12,  avg # of iterations =  1.0

     total cpu time spent up to now is       63.2 secs

     total energy              =    -306.87165560 Ry
     estimated scf accuracy    <          9.7E-10 Ry

     iteration # 20     ecut=    70.00 Ry     beta= 0.70
     Davidson diagonalization with overlap
     ethr =  4.15E-12,  avg # of iterations =  5.0

     total cpu time spent up to now is       63.4 secs

     total energy              =    -306.87165560 Ry
     estimated scf accuracy    <          1.5E-10 Ry

     iteration # 21     ecut=    70.00 Ry     beta= 0.70
     Davidson diagonalization with overlap
     ethr =  6.82E-13,  avg # of iterations =  5.2

     total cpu time spent up to now is       63.6 secs

     End of self-consistent calculation

          k = 0.0000 0.0000 0.0000 (  2929 PWs)   bands (ev):

   -38.3694 -38.2545 -17.5482 -17.0979 -17.0979 -17.0045 -17.0045 -16.9111
     4.9771   8.4214  11.1828  11.9054  11.9054  12.2193  12.4141

          k =-0.0000 0.0000-0.3306 (  2906 PWs)   bands (ev):

   -38.3123 -38.3123 -17.2371 -17.2371 -17.0513 -17.0513 -17.0513 -17.0513
     6.6294   6.6294  11.2679  11.2680  11.8229  11.8229  11.8229

          k = 0.0000 0.3983-0.0000 (  2970 PWs)   bands (ev):

   -38.3038 -38.2377 -17.3972 -17.3703 -17.2960 -17.1916 -17.0469 -17.0060
     7.2462   9.4428   9.7570  10.3237  11.8930  11.8972  11.8981

          k = 0.0000 0.3983-0.3306 (  2958 PWs)   bands (ev):

   -38.2708 -38.2708 -17.4466 -17.4466 -17.1197 -17.1197 -17.0877 -17.0877
     8.2414   8.2414  10.4129  10.4129  11.5060  11.5060  12.7521

          k = 0.3449 0.5974-0.0000 (  2964 PWs)   bands (ev):

   -38.2500 -38.2500 -17.4253 -17.3266 -17.3266 -17.2155 -17.1672 -17.1672
     9.5275   9.5275   9.6088   9.6555  11.3468  11.3468  12.5317

          k = 0.3449 0.5974-0.3306 (  2982 PWs)   bands (ev):

   -38.2500 -38.2500 -17.4533 -17.4533 -17.3215 -17.3215 -17.0363 -17.0363
     9.8182   9.8182  10.0693  10.0693  10.5800  10.5800  12.8333

     the Fermi energy is    10.2815 ev

!    total energy              =    -306.87165560 Ry
     total all-electron energy =     -3050.012426 Ry
     estimated scf accuracy    <          1.5E-11 Ry
     smearing contrib. (-TS)   =      -0.00195798 Ry
     internal energy E=F+TS    =    -306.86969761 Ry

     The total energy is F=E-TS. E is the sum of the following terms:
     one-electron contribution =     -66.63384127 Ry
     hartree contribution      =      39.86725590 Ry
     xc contribution           =     -34.70386665 Ry
     ewald contribution        =    -131.64587539 Ry
     one-center paw contrib.   =    -113.75337021 Ry

     convergence has been achieved in  21 iterations

     Forces acting on atoms (cartesian axes, Ry/au):

     atom    1 type  1   force =    -0.00000000   -0.00000000    0.00000000
     atom    2 type  1   force =     0.00000000    0.00000000   -0.00000000
     The non-local contrib.  to forces
     atom    1 type  1   force =    -0.00000000   -0.00000000    0.00000000
     atom    2 type  1   force =    -0.00000000   -0.00000000   -0.00000000
     The ionic contribution  to forces
     atom    1 type  1   force =     0.00000000   -0.00000000   -0.00000000
     atom    2 type  1   force =    -0.00000000    0.00000000    0.00000000
     The local contribution  to forces
     atom    1 type  1   force =     0.00000000    0.00000000    0.00000000
     atom    2 type  1   force =    -0.00000000    0.00000000    0.00000000
     The core correction contribution to forces
     atom    1 type  1   force =     0.00000000    0.00000000    0.00000000
     atom    2 type  1   force =     0.00000000   -0.00000000   -0.00000000
     The Hubbard contrib.    to forces
     atom    1 type  1   force =     0.00000000    0.00000000    0.00000000
     atom    2 type  1   force =     0.00000000    0.00000000    0.00000000
     The SCF correction term to forces
     atom    1 type  1   force =    -0.00000000   -0.00000000    0.00000000
     atom    2 type  1   force =     0.00000000   -0.00000000   -0.00000000

     Total force =     0.000000     Total SCF correction =     0.000000


     Computing stress (Cartesian axis) and pressure

          total   stress  (Ry/bohr**3)                   (kbar)     P=       -2.00
  -0.00001151   0.00000000   0.00000000           -1.69        0.00        0.00
   0.00000000  -0.00001151  -0.00000000            0.00       -1.69       -0.00
   0.00000000  -0.00000000  -0.00001785            0.00       -0.00       -2.63


     Writing all to output data dir sc_vcrelax.out/scandium.save/

     init_run     :      2.48s CPU      2.51s WALL (       2 calls)
     electrons    :     37.03s CPU     37.98s WALL (       9 calls)
     update_pot   :      6.83s CPU      6.84s WALL (       7 calls)
     forces       :      4.74s CPU      4.75s WALL (       9 calls)
     stress       :     12.06s CPU     12.26s WALL (       9 calls)

     Called by init_run:
     wfcinit      :      0.09s CPU      0.11s WALL (       2 calls)
     potinit      :      0.55s CPU      0.55s WALL (       2 calls)
     hinit0       :      1.70s CPU      1.70s WALL (       2 calls)

     Called by electrons:
     c_bands      :     21.43s CPU     21.85s WALL (     182 calls)
     sum_band     :      5.59s CPU      5.68s WALL (     182 calls)
     v_of_rho     :      0.99s CPU      1.00s WALL (     187 calls)
     newd         :      2.41s CPU      2.43s WALL (     187 calls)
     PAW_pot      :      5.92s CPU      5.93s WALL (     194 calls)
     mix_rho      :      0.57s CPU      0.58s WALL (     182 calls)

     Called by c_bands:
     init_us_2    :      0.41s CPU      0.43s WALL (     782 calls)
     init_us_2:cp :      0.41s CPU      0.43s WALL (     782 calls)
     cegterg      :     17.22s CPU     17.43s WALL (     365 calls)

     Called by *egterg:
     cdiaghg      :      0.49s CPU      0.51s WALL (    1746 calls)
     h_psi        :     12.97s CPU     13.16s WALL (    1773 calls)
     s_psi        :      0.87s CPU      0.88s WALL (    1773 calls)
     g_psi        :      0.08s CPU      0.08s WALL (    1404 calls)

     Called by h_psi:
     h_psi:calbec :      0.89s CPU      0.90s WALL (    1773 calls)
     vloc_psi     :     11.15s CPU     11.32s WALL (    1773 calls)
     add_vuspsi   :      0.87s CPU      0.87s WALL (    1773 calls)

     General routines
     calbec       :      1.24s CPU      1.26s WALL (    2241 calls)
     fft          :      1.17s CPU      1.18s WALL (    1187 calls)
     ffts         :      0.23s CPU      0.23s WALL (     369 calls)
     fftw         :     11.59s CPU     11.76s WALL (   38582 calls)
     interpolate  :      0.37s CPU      0.37s WALL (     187 calls)

     Parallel routines

     PWSCF        :   1m 3.72s CPU   1m 5.33s WALL


   This run was terminated on:  10:28:17  24Jul2023            

=------------------------------------------------------------------------------=
   JOB DONE.
=------------------------------------------------------------------------------=
