
     Program PWSCF v.7.2 starts on 21Jul2023 at 14:48:45 

     This program is part of the open-source Quantum ESPRESSO suite
     for quantum simulation of materials; please cite
         "P. Giannozzi et al., J. Phys.:Condens. Matter 21 395502 (2009);
         "P. Giannozzi et al., J. Phys.:Condens. Matter 29 465901 (2017);
         "P. Giannozzi et al., J. Chem. Phys. 152 154105 (2020);
          URL http://www.quantum-espresso.org", 
     in publications or presentations arising from this work. More details at
     http://www.quantum-espresso.org/quote

     Parallel version (MPI), running on    20 processors

     MPI processes distributed on     1 nodes
     316472 MiB available memory on the printing compute node when the environment starts

     Waiting for input...
     Reading input from standard input

     Current dimensions of program PWSCF are:
     Max number of different atomic species (ntypx) = 10
     Max number of k-points (npk) = 120000
     Max angular momentum in pseudopotentials (lmaxx) =  4
     file Sc.pz-spn-kjpaw_psl.1.0.0.UPF: wavefunction(s)  3S 3P 3D renormalized

     R & G space division:  proc/nbgrp/npool/nimage =      20
     Subspace diagonalization in iterative solution of the eigenvalue problem:
     a serial algorithm will be used


     Parallelization info
     --------------------
     sticks:   dense  smooth     PW     G-vecs:    dense   smooth      PW
     Min          47      37     11                 1943     1335     211
     Max          48      38     12                 1954     1344     215
     Sum         955     745    223                38995    26741    4259

     Using Slab Decomposition



     bravais-lattice index     =            4
     lattice parameter (alat)  =       6.2531  a.u.
     unit-cell volume          =     337.5249 (a.u.)^3
     number of atoms/cell      =            2
     number of atomic types    =            1
     number of electrons       =        22.00
     number of Kohn-Sham states=           15
     kinetic-energy cutoff     =      70.0000  Ry
     charge density cutoff     =     360.0000  Ry
     scf convergence threshold =      1.0E-08
     mixing beta               =       0.7000
     number of iterations used =            8  plain     mixing
     energy convergence thresh.=      1.0E-04
     force convergence thresh. =      1.0E-03
     press convergence thresh. =      5.0E-01
     Exchange-correlation= SLA  PZ   NOGX NOGC
                           (   1   1   0   0   0   0   0)
     nstep                     =           50


     celldm(1)=   6.253104  celldm(2)=   0.000000  celldm(3)=   1.594000
     celldm(4)=   0.000000  celldm(5)=   0.000000  celldm(6)=   0.000000

     crystal axes: (cart. coord. in units of alat)
               a(1) = (   1.000000   0.000000   0.000000 )  
               a(2) = (  -0.500000   0.866025   0.000000 )  
               a(3) = (   0.000000   0.000000   1.594000 )  

     reciprocal axes: (cart. coord. in units 2 pi/alat)
               b(1) = (  1.000000  0.577350 -0.000000 )  
               b(2) = (  0.000000  1.154701  0.000000 )  
               b(3) = (  0.000000 -0.000000  0.627353 )  


     PseudoPot. # 1 for Sc read from file:
     ../../../Sc.pz-spn-kjpaw_psl.1.0.0.UPF
     MD5 check sum: 1f9095df0bb42a6568b4e9f256ff075f
     Pseudo is Projector augmented-wave + core cor, Zval = 11.0
     Generated using 'atomic' code by A. Dal Corso  v.7.1
     Shape of augmentation charge: PSQ
     Using radial grid of 1173 points,  6 beta functions with: 
                l(1) =   0
                l(2) =   0
                l(3) =   1
                l(4) =   1
                l(5) =   2
                l(6) =   2
     Q(r) pseudized with 0 coefficients 


     atomic species   valence    mass     pseudopotential
        Sc            11.00    44.59600     Sc( 1.00)

     24 Sym. Ops., with inversion, found (12 have fractional translation)



   Cartesian axes

     site n.     atom                  positions (alat units)
         1           Sc  tau(   1) = (   0.0000000   0.0000000   0.0000000  )
         2           Sc  tau(   2) = (   0.5000000   0.2886751   0.7970000  )

     number of k points=    95  Marzari-Vanderbilt smearing, width (Ry)=  0.0200
                       cart. coord. in units 2pi/alat
        k(    1) = (   0.0000000   0.0000000   0.0000000), wk =   0.0017361
        k(    2) = (   0.0000000   0.0000000   0.0784191), wk =   0.0034722
        k(    3) = (   0.0000000   0.0000000   0.1568381), wk =   0.0034722
        k(    4) = (   0.0000000   0.0000000   0.2352572), wk =   0.0034722
        k(    5) = (   0.0000000   0.0000000  -0.3136763), wk =   0.0017361
        k(    6) = (   0.0000000   0.0962250   0.0000000), wk =   0.0104167
        k(    7) = (   0.0000000   0.0962250   0.0784191), wk =   0.0208333
        k(    8) = (   0.0000000   0.0962250   0.1568381), wk =   0.0208333
        k(    9) = (   0.0000000   0.0962250   0.2352572), wk =   0.0208333
        k(   10) = (   0.0000000   0.0962250  -0.3136763), wk =   0.0104167
        k(   11) = (   0.0000000   0.1924501   0.0000000), wk =   0.0104167
        k(   12) = (   0.0000000   0.1924501   0.0784191), wk =   0.0208333
        k(   13) = (   0.0000000   0.1924501   0.1568381), wk =   0.0208333
        k(   14) = (   0.0000000   0.1924501   0.2352572), wk =   0.0208333
        k(   15) = (   0.0000000   0.1924501  -0.3136763), wk =   0.0104167
        k(   16) = (   0.0000000   0.2886751   0.0000000), wk =   0.0104167
        k(   17) = (   0.0000000   0.2886751   0.0784191), wk =   0.0208333
        k(   18) = (   0.0000000   0.2886751   0.1568381), wk =   0.0208333
        k(   19) = (   0.0000000   0.2886751   0.2352572), wk =   0.0208333
        k(   20) = (   0.0000000   0.2886751  -0.3136763), wk =   0.0104167
        k(   21) = (   0.0000000   0.3849002   0.0000000), wk =   0.0104167
        k(   22) = (   0.0000000   0.3849002   0.0784191), wk =   0.0208333
        k(   23) = (   0.0000000   0.3849002   0.1568381), wk =   0.0208333
        k(   24) = (   0.0000000   0.3849002   0.2352572), wk =   0.0208333
        k(   25) = (   0.0000000   0.3849002  -0.3136763), wk =   0.0104167
        k(   26) = (   0.0000000   0.4811252   0.0000000), wk =   0.0104167
        k(   27) = (   0.0000000   0.4811252   0.0784191), wk =   0.0208333
        k(   28) = (   0.0000000   0.4811252   0.1568381), wk =   0.0208333
        k(   29) = (   0.0000000   0.4811252   0.2352572), wk =   0.0208333
        k(   30) = (   0.0000000   0.4811252  -0.3136763), wk =   0.0104167
        k(   31) = (   0.0000000  -0.5773503   0.0000000), wk =   0.0052083
        k(   32) = (   0.0000000  -0.5773503   0.0784191), wk =   0.0104167
        k(   33) = (   0.0000000  -0.5773503   0.1568381), wk =   0.0104167
        k(   34) = (   0.0000000  -0.5773503   0.2352572), wk =   0.0104167
        k(   35) = (   0.0000000  -0.5773503  -0.3136763), wk =   0.0052083
        k(   36) = (   0.0833333   0.1443376   0.0000000), wk =   0.0104167
        k(   37) = (   0.0833333   0.1443376   0.0784191), wk =   0.0208333
        k(   38) = (   0.0833333   0.1443376   0.1568381), wk =   0.0208333
        k(   39) = (   0.0833333   0.1443376   0.2352572), wk =   0.0208333
        k(   40) = (   0.0833333   0.1443376  -0.3136763), wk =   0.0104167
        k(   41) = (   0.0833333   0.2405626   0.0000000), wk =   0.0208333
        k(   42) = (   0.0833333   0.2405626   0.0784191), wk =   0.0416667
        k(   43) = (   0.0833333   0.2405626   0.1568381), wk =   0.0416667
        k(   44) = (   0.0833333   0.2405626   0.2352572), wk =   0.0416667
        k(   45) = (   0.0833333   0.2405626  -0.3136763), wk =   0.0208333
        k(   46) = (   0.0833333   0.3367877   0.0000000), wk =   0.0208333
        k(   47) = (   0.0833333   0.3367877   0.0784191), wk =   0.0416667
        k(   48) = (   0.0833333   0.3367877   0.1568381), wk =   0.0416667
        k(   49) = (   0.0833333   0.3367877   0.2352572), wk =   0.0416667
        k(   50) = (   0.0833333   0.3367877  -0.3136763), wk =   0.0208333
        k(   51) = (   0.0833333   0.4330127   0.0000000), wk =   0.0208333
        k(   52) = (   0.0833333   0.4330127   0.0784191), wk =   0.0416667
        k(   53) = (   0.0833333   0.4330127   0.1568381), wk =   0.0416667
        k(   54) = (   0.0833333   0.4330127   0.2352572), wk =   0.0416667
        k(   55) = (   0.0833333   0.4330127  -0.3136763), wk =   0.0208333
        k(   56) = (   0.0833333   0.5292377   0.0000000), wk =   0.0208333
        k(   57) = (   0.0833333   0.5292377   0.0784191), wk =   0.0416667
        k(   58) = (   0.0833333   0.5292377   0.1568381), wk =   0.0416667
        k(   59) = (   0.0833333   0.5292377   0.2352572), wk =   0.0416667
        k(   60) = (   0.0833333   0.5292377  -0.3136763), wk =   0.0208333
        k(   61) = (   0.1666667   0.2886751   0.0000000), wk =   0.0104167
        k(   62) = (   0.1666667   0.2886751   0.0784191), wk =   0.0208333
        k(   63) = (   0.1666667   0.2886751   0.1568381), wk =   0.0208333
        k(   64) = (   0.1666667   0.2886751   0.2352572), wk =   0.0208333
        k(   65) = (   0.1666667   0.2886751  -0.3136763), wk =   0.0104167
        k(   66) = (   0.1666667   0.3849002   0.0000000), wk =   0.0208333
        k(   67) = (   0.1666667   0.3849002   0.0784191), wk =   0.0416667
        k(   68) = (   0.1666667   0.3849002   0.1568381), wk =   0.0416667
        k(   69) = (   0.1666667   0.3849002   0.2352572), wk =   0.0416667
        k(   70) = (   0.1666667   0.3849002  -0.3136763), wk =   0.0208333
        k(   71) = (   0.1666667   0.4811252   0.0000000), wk =   0.0208333
        k(   72) = (   0.1666667   0.4811252   0.0784191), wk =   0.0416667
        k(   73) = (   0.1666667   0.4811252   0.1568381), wk =   0.0416667
        k(   74) = (   0.1666667   0.4811252   0.2352572), wk =   0.0416667
        k(   75) = (   0.1666667   0.4811252  -0.3136763), wk =   0.0208333
        k(   76) = (   0.1666667   0.5773503   0.0000000), wk =   0.0104167
        k(   77) = (   0.1666667   0.5773503   0.0784191), wk =   0.0208333
        k(   78) = (   0.1666667   0.5773503   0.1568381), wk =   0.0208333
        k(   79) = (   0.1666667   0.5773503   0.2352572), wk =   0.0208333
        k(   80) = (   0.1666667   0.5773503  -0.3136763), wk =   0.0104167
        k(   81) = (   0.2500000   0.4330127   0.0000000), wk =   0.0104167
        k(   82) = (   0.2500000   0.4330127   0.0784191), wk =   0.0208333
        k(   83) = (   0.2500000   0.4330127   0.1568381), wk =   0.0208333
        k(   84) = (   0.2500000   0.4330127   0.2352572), wk =   0.0208333
        k(   85) = (   0.2500000   0.4330127  -0.3136763), wk =   0.0104167
        k(   86) = (   0.2500000   0.5292377   0.0000000), wk =   0.0208333
        k(   87) = (   0.2500000   0.5292377   0.0784191), wk =   0.0416667
        k(   88) = (   0.2500000   0.5292377   0.1568381), wk =   0.0416667
        k(   89) = (   0.2500000   0.5292377   0.2352572), wk =   0.0416667
        k(   90) = (   0.2500000   0.5292377  -0.3136763), wk =   0.0208333
        k(   91) = (   0.3333333   0.5773503   0.0000000), wk =   0.0034722
        k(   92) = (   0.3333333   0.5773503   0.0784191), wk =   0.0069444
        k(   93) = (   0.3333333   0.5773503   0.1568381), wk =   0.0069444
        k(   94) = (   0.3333333   0.5773503   0.2352572), wk =   0.0069444
        k(   95) = (   0.3333333   0.5773503  -0.3136763), wk =   0.0034722

     Dense  grid:    38995 G-vectors     FFT dimensions: (  45,  45,  64)

     Smooth grid:    26741 G-vectors     FFT dimensions: (  36,  36,  54)

     Estimated max dynamical RAM per process >      14.14 MB

     Estimated total dynamical RAM >     282.83 MB

     Check: negative core charge=   -0.000008

     Initial potential from superposition of free atoms

     starting charge      21.9956, renormalised to      22.0000
     Starting wfcs are   20 randomized atomic wfcs
     Checking if some PAW data can be deallocated... 

     total cpu time spent up to now is        5.9 secs

     Self-consistent Calculation

     iteration #  1     ecut=    70.00 Ry     beta= 0.70
     Davidson diagonalization with overlap
     ethr =  1.00E-02,  avg # of iterations =  2.2

     Threshold (ethr) on eigenvalues was too large:
     Diagonalizing with lowered threshold

     Davidson diagonalization with overlap
     c_bands:  1 eigenvalues not converged
     c_bands:  1 eigenvalues not converged
     c_bands:  1 eigenvalues not converged
     c_bands:  1 eigenvalues not converged
     c_bands:  2 eigenvalues not converged
     c_bands:  1 eigenvalues not converged
     c_bands:  1 eigenvalues not converged
     c_bands:  2 eigenvalues not converged
     c_bands:  4 eigenvalues not converged
     c_bands:  1 eigenvalues not converged
     c_bands:  2 eigenvalues not converged
     c_bands:  2 eigenvalues not converged
     c_bands:  3 eigenvalues not converged
     c_bands:  2 eigenvalues not converged
     c_bands:  2 eigenvalues not converged
     c_bands:  1 eigenvalues not converged
     c_bands:  1 eigenvalues not converged
     c_bands:  2 eigenvalues not converged
     c_bands:  2 eigenvalues not converged
     c_bands:  2 eigenvalues not converged
     c_bands:  1 eigenvalues not converged
     c_bands:  1 eigenvalues not converged
     c_bands:  2 eigenvalues not converged
     c_bands:  1 eigenvalues not converged
     c_bands:  3 eigenvalues not converged
     c_bands:  4 eigenvalues not converged
     c_bands:  3 eigenvalues not converged
     c_bands:  1 eigenvalues not converged
     c_bands:  1 eigenvalues not converged
     c_bands:  1 eigenvalues not converged
     ethr =  1.59E-05,  avg # of iterations = 17.8

     total cpu time spent up to now is       40.6 secs

     total energy              =    -306.86626233 Ry
     estimated scf accuracy    <       0.02020203 Ry

     iteration #  2     ecut=    70.00 Ry     beta= 0.70
     Davidson diagonalization with overlap
     ethr =  9.18E-05,  avg # of iterations =  4.5

     total cpu time spent up to now is       44.9 secs

     total energy              =    -306.87115422 Ry
     estimated scf accuracy    <       0.00153339 Ry

     iteration #  3     ecut=    70.00 Ry     beta= 0.70
     Davidson diagonalization with overlap
     c_bands:  3 eigenvalues not converged
     c_bands:  1 eigenvalues not converged
     c_bands:  1 eigenvalues not converged
     ethr =  6.97E-06,  avg # of iterations =  8.7

     total cpu time spent up to now is       50.8 secs

     total energy              =    -306.87220697 Ry
     estimated scf accuracy    <       0.00031639 Ry

     iteration #  4     ecut=    70.00 Ry     beta= 0.70
     Davidson diagonalization with overlap
     c_bands:  3 eigenvalues not converged
     c_bands:  1 eigenvalues not converged
     ethr =  1.44E-06,  avg # of iterations =  7.5

     total cpu time spent up to now is       68.1 secs

     total energy              =    -306.87239408 Ry
     estimated scf accuracy    <       0.00015783 Ry

     iteration #  5     ecut=    70.00 Ry     beta= 0.70
     Davidson diagonalization with overlap
     ethr =  7.17E-07,  avg # of iterations =  6.5

     total cpu time spent up to now is       98.9 secs

     total energy              =    -306.87246962 Ry
     estimated scf accuracy    <       0.00001448 Ry

     iteration #  6     ecut=    70.00 Ry     beta= 0.70
     Davidson diagonalization with overlap
     ethr =  6.58E-08,  avg # of iterations =  8.8

     total cpu time spent up to now is      127.4 secs

     total energy              =    -306.87246958 Ry
     estimated scf accuracy    <       0.00001791 Ry

     iteration #  7     ecut=    70.00 Ry     beta= 0.70
     Davidson diagonalization with overlap
     ethr =  6.58E-08,  avg # of iterations =  6.0

     total cpu time spent up to now is      151.6 secs

     total energy              =    -306.87247587 Ry
     estimated scf accuracy    <       0.00000152 Ry

     iteration #  8     ecut=    70.00 Ry     beta= 0.70
     Davidson diagonalization with overlap
     c_bands:  1 eigenvalues not converged
     ethr =  6.92E-09,  avg # of iterations =  8.1

     total cpu time spent up to now is      167.9 secs

     total energy              =    -306.87247705 Ry
     estimated scf accuracy    <       0.00000011 Ry

     iteration #  9     ecut=    70.00 Ry     beta= 0.70
     Davidson diagonalization with overlap
     ethr =  4.79E-10,  avg # of iterations = 12.5

     total cpu time spent up to now is      173.1 secs

     total energy              =    -306.87247726 Ry
     estimated scf accuracy    <       0.00000013 Ry

     iteration # 10     ecut=    70.00 Ry     beta= 0.70
     Davidson diagonalization with overlap
     ethr =  4.79E-10,  avg # of iterations =  2.8

     total cpu time spent up to now is      177.8 secs

     total energy              =    -306.87247726 Ry
     estimated scf accuracy    <       0.00000001 Ry

     iteration # 11     ecut=    70.00 Ry     beta= 0.70
     Davidson diagonalization with overlap
     ethr =  5.69E-11,  avg # of iterations = 11.8

     total cpu time spent up to now is      194.1 secs

     total energy              =    -306.87247729 Ry
     estimated scf accuracy    <       0.00000005 Ry

     iteration # 12     ecut=    70.00 Ry     beta= 0.70
     Davidson diagonalization with overlap
     ethr =  5.69E-11,  avg # of iterations =  3.8

     total cpu time spent up to now is      208.8 secs

     total energy              =    -306.87247729 Ry
     estimated scf accuracy    <       0.00000002 Ry

     iteration # 13     ecut=    70.00 Ry     beta= 0.70
     Davidson diagonalization with overlap
     ethr =  5.69E-11,  avg # of iterations =  4.1

     total cpu time spent up to now is      222.0 secs

     End of self-consistent calculation

          k = 0.0000 0.0000 0.0000 (  3381 PWs)   bands (ev):

   -40.1391 -40.0747 -19.2242 -18.8906 -18.8906 -18.8322 -18.8322 -18.8153
     3.7530   7.1408   9.3011  10.3522  10.3523  10.4622  10.7557

          k = 0.0000 0.0000 0.0784 (  3363 PWs)   bands (ev):

   -40.1366 -40.0772 -19.2091 -18.8884 -18.8884 -18.8345 -18.8345 -18.8313
     3.8543   6.9871   9.2701  10.3095  10.3096  10.3971  10.7002

          k = 0.0000 0.0000 0.1568 (  3315 PWs)   bands (ev):

   -40.1296 -40.0842 -19.1660 -18.8821 -18.8821 -18.8768 -18.8407 -18.8407
     4.1513   6.5417   9.2782  10.2148  10.2473  10.2473  10.5656

          k = 0.0000 0.0000 0.2353 (  3320 PWs)   bands (ev):

   -40.1193 -40.0946 -19.1008 -18.9444 -18.8726 -18.8726 -18.8503 -18.8503
     4.6230   5.9066   9.4190   9.9519  10.2353  10.2358  10.4130

          k = 0.0000 0.0000-0.3137 (  3326 PWs)   bands (ev):

   -40.1070 -40.1070 -19.0231 -19.0231 -18.8614 -18.8614 -18.8614 -18.8614
     5.2302   5.2302   9.6651   9.6651  10.2932  10.2932  10.2932

          k = 0.0000 0.0962 0.0000 (  3361 PWs)   bands (ev):

   -40.1357 -40.0734 -19.2154 -18.9088 -18.8967 -18.8513 -18.8348 -18.8190
     3.9043   7.2707   9.1758  10.0829  10.4617  10.6333  10.7102

          k = 0.0000 0.0962 0.0784 (  3360 PWs)   bands (ev):

   -40.1334 -40.0758 -19.2012 -18.9062 -18.8943 -18.8593 -18.8372 -18.8286
     4.0041   7.1167   9.1482  10.0790  10.4072  10.5046  10.6363

          k = 0.0000 0.0962 0.1568 (  3346 PWs)   bands (ev):

   -40.1266 -40.0825 -19.1607 -18.8993 -18.8927 -18.8876 -18.8449 -18.8439
     4.2969   6.6690   9.1709  10.0849  10.2337  10.3340  10.6497

          k = 0.0000 0.0962 0.2353 (  3345 PWs)   bands (ev):

   -40.1166 -40.0927 -19.0996 -18.9540 -18.8870 -18.8776 -18.8591 -18.8540
     4.7624   6.0342   9.3322   9.9187  10.1317  10.3192  10.3794

          k = 0.0000 0.0962-0.3137 (  3338 PWs)   bands (ev):

   -40.1046 -40.1046 -19.0269 -19.0269 -18.8734 -18.8734 -18.8658 -18.8658
     5.3629   5.3629   9.6008   9.6009  10.2321  10.2332  10.3771

          k = 0.0000 0.1925 0.0000 (  3355 PWs)   bands (ev):

   -40.1265 -40.0698 -19.1902 -18.9590 -18.9128 -18.9024 -18.8423 -18.8302
     4.3435   7.6191   8.8902   9.6717  10.4062  10.7806  10.8124

          k = 0.0000 0.1925 0.0784 (  3354 PWs)   bands (ev):

   -40.1244 -40.0720 -19.1791 -18.9549 -18.9120 -18.9101 -18.8450 -18.8365
     4.4385   7.4652   8.8741   9.6911  10.3974  10.5424  10.6296

          k = 0.0000 0.1925 0.1568 (  3354 PWs)   bands (ev):

   -40.1182 -40.0782 -19.1475 -18.9483 -18.9352 -18.9025 -18.8529 -18.8527
     4.7174   7.0142   8.9355   9.7479  10.1723  10.4060  10.5386

          k = 0.0000 0.1925 0.2353 (  3349 PWs)   bands (ev):

   -40.1091 -40.0874 -19.1001 -18.9888 -18.9216 -18.8911 -18.8750 -18.8642
     5.1618   6.3877   9.1372   9.7362   9.9556  10.2579  10.5324

          k = 0.0000 0.1925-0.3137 (  3340 PWs)   bands (ev):

   -40.0982 -40.0982 -19.0441 -19.0441 -18.8990 -18.8990 -18.8776 -18.8776
     5.7376   5.7376   9.4335   9.4335  10.0770  10.0770  10.6036

          k = 0.0000 0.2887 0.0000 (  3328 PWs)   bands (ev):

   -40.1133 -40.0655 -19.1523 -19.0281 -18.9702 -18.9339 -18.8533 -18.8489
     5.0251   8.0262   8.5828   9.2474  10.1869  10.4678  10.5680

          k = 0.0000 0.2887 0.0784 (  3329 PWs)   bands (ev):

   -40.1115 -40.0673 -19.1489 -19.0194 -18.9794 -18.9309 -18.8564 -18.8522
     5.1104   7.8776   8.5939   9.2781  10.1594  10.4080  10.5811

          k = 0.0000 0.2887 0.1568 (  3345 PWs)   bands (ev):

   -40.1063 -40.0725 -19.1371 -19.0153 -18.9845 -18.9222 -18.8652 -18.8638
     5.3608   7.4435   8.7114   9.3546  10.0134  10.2969  10.6307

          k = 0.0000 0.2887 0.2353 (  3344 PWs)   bands (ev):

   -40.0986 -40.0803 -19.1151 -19.0476 -18.9528 -18.9092 -18.8858 -18.8783
     5.7599   6.8656   8.9382   9.3921   9.8546  10.1271  10.7313

          k = 0.0000 0.2887-0.3137 (  3340 PWs)   bands (ev):

   -40.0895 -40.0895 -19.0839 -19.0839 -18.9169 -18.9169 -18.8938 -18.8938
     6.2777   6.2777   9.2104   9.2104   9.9298   9.9299  10.8841

          k = 0.0000 0.3849 0.0000 (  3326 PWs)   bands (ev):

   -40.0991 -40.0622 -19.1079 -19.0979 -19.0359 -18.9545 -18.8741 -18.8648
     5.8647   8.1855   8.3336   8.9126  10.2124  10.2206  10.3559

          k = 0.0000 0.3849 0.0784 (  3331 PWs)   bands (ev):

   -40.0977 -40.0636 -19.1344 -19.0671 -19.0403 -18.9511 -18.8741 -18.8682
     5.9317   8.0439   8.4029   8.9541  10.0677  10.2990  10.4052

          k = 0.0000 0.3849 0.1568 (  3326 PWs)   bands (ev):

   -40.0937 -40.0676 -19.1510 -19.0796 -19.0068 -18.9414 -18.8783 -18.8780
     6.1279   7.7109   8.5639   9.0423   9.9222  10.2488  10.5503

          k = 0.0000 0.3849 0.2353 (  3329 PWs)   bands (ev):

   -40.0877 -40.0736 -19.1514 -19.1101 -18.9610 -18.9269 -18.8932 -18.8926
     6.4386   7.2816   8.7867   9.0959   9.8349  10.0798  10.7804

          k = 0.0000 0.3849-0.3137 (  3338 PWs)   bands (ev):

   -40.0807 -40.0807 -19.1365 -19.1365 -18.9214 -18.9214 -18.9098 -18.9098
     6.8370   6.8370   9.0027   9.0027   9.8964   9.8964  11.0751

          k = 0.0000 0.4811 0.0000 (  3346 PWs)   bands (ev):

   -40.0873 -40.0611 -19.1493 -19.0828 -19.0667 -18.9691 -18.9013 -18.8734
     6.7161   8.0199   8.1766   8.6624  10.0498  10.2145  10.4259

          k = 0.0000 0.4811 0.0784 (  3337 PWs)   bands (ev):

   -40.0863 -40.0621 -19.1634 -19.0967 -19.0419 -18.9655 -18.8979 -18.8771
     6.7478   7.9239   8.2757   8.6929  10.0550  10.2765  10.3796

          k = 0.0000 0.4811 0.1568 (  3338 PWs)   bands (ev):

   -40.0835 -40.0649 -19.1821 -19.1252 -18.9978 -18.9552 -18.8941 -18.8876
     6.8444   7.7282   8.4690   8.7899  10.0418  10.2567  10.4591

          k = 0.0000 0.4811 0.2353 (  3334 PWs)   bands (ev):

   -40.0792 -40.0692 -19.1883 -19.1559 -18.9544 -18.9398 -18.9032 -18.9000
     7.0064   7.4797   8.6999   8.9004   9.9851  10.1067  10.7523

          k = 0.0000 0.4811-0.3137 (  3334 PWs)   bands (ev):

   -40.0742 -40.0742 -19.1789 -19.1789 -18.9215 -18.9215 -18.9203 -18.9203
     7.2259   7.2259   8.8830   8.8830   9.9883   9.9883  11.1364

          k = 0.0000-0.5774 0.0000 (  3326 PWs)   bands (ev):

   -40.0823 -40.0614 -19.1680 -19.0998 -19.0473 -18.9745 -18.9155 -18.8766
     7.2309   7.7840   8.1237   8.5471   9.9890  10.1653  10.5251

          k = 0.0000-0.5774 0.0784 (  3336 PWs)   bands (ev):

   -40.0815 -40.0622 -19.1792 -19.1125 -19.0284 -18.9708 -18.9102 -18.8804
     7.2105   7.7609   8.2345   8.5446  10.0438  10.2306  10.4541

          k = 0.0000-0.5774 0.1568 (  3330 PWs)   bands (ev):

   -40.0793 -40.0644 -19.1964 -19.1416 -18.9891 -18.9603 -18.9023 -18.8911
     7.1956   7.6680   8.4974   8.5960  10.1392  10.2746  10.4237

          k = 0.0000-0.5774 0.2353 (  3338 PWs)   bands (ev):

   -40.0759 -40.0678 -19.2032 -19.1725 -18.9495 -18.9445 -18.9070 -18.9035
     7.2392   7.5114   8.7341   8.7658  10.0918  10.1462  10.7347

          k = 0.0000-0.5774-0.3137 (  3352 PWs)   bands (ev):

   -40.0719 -40.0719 -19.1949 -19.1949 -18.9258 -18.9258 -18.9193 -18.9193
     7.3518   7.3518   8.8516   8.8516  10.0621  10.0621  11.1447

          k = 0.0833 0.1443 0.0000 (  3369 PWs)   bands (ev):

   -40.1295 -40.0709 -19.1983 -18.9396 -18.9158 -18.8793 -18.8424 -18.8264
     4.1998   7.5122   8.9757   9.7834  10.4867  10.6909  10.7615

          k = 0.0833 0.1443 0.0784 (  3357 PWs)   bands (ev):

   -40.1272 -40.0731 -19.1862 -18.9359 -18.9152 -18.8873 -18.8449 -18.8331
     4.2965   7.3579   8.9551   9.7985  10.4952  10.5103  10.5847

          k = 0.0833 0.1443 0.1568 (  3351 PWs)   bands (ev):

   -40.1209 -40.0795 -19.1514 -18.9291 -18.9254 -18.8973 -18.8522 -18.8490
     4.5803   6.9069   9.0038   9.8469  10.1986  10.4353  10.4924

          k = 0.0833 0.1443 0.2353 (  3348 PWs)   bands (ev):

   -40.1115 -40.0890 -19.0991 -18.9764 -18.9098 -18.8906 -18.8676 -18.8629
     5.0323   6.2759   9.1949   9.8123   9.9888  10.2875  10.4782

          k = 0.0833 0.1443-0.3137 (  3340 PWs)   bands (ev):

   -40.1003 -40.1003 -19.0373 -19.0373 -18.8921 -18.8921 -18.8741 -18.8741
     5.6173   5.6173   9.4879   9.4879  10.1176  10.1181  10.5342

          k = 0.0833 0.2406 0.0000 (  3334 PWs)   bands (ev):

   -40.1182 -40.0670 -19.1667 -18.9945 -18.9608 -18.9134 -18.8553 -18.8415
     4.7623   7.9094   8.6972   9.3727  10.2573  10.4630  10.7527

          k = 0.0833 0.2406 0.0784 (  3343 PWs)   bands (ev):

   -40.1163 -40.0689 -19.1595 -18.9886 -18.9648 -18.9166 -18.8584 -18.8448
     4.8519   7.7573   8.6933   9.4003  10.2665  10.3843  10.6784

          k = 0.0833 0.2406 0.1568 (  3347 PWs)   bands (ev):

   -40.1108 -40.0745 -19.1384 -18.9893 -18.9656 -18.9174 -18.8672 -18.8559
     5.1152   7.3078   8.7883   9.4757  10.0874  10.3026  10.6279

          k = 0.0833 0.2406 0.2353 (  3341 PWs)   bands (ev):

   -40.1025 -40.0829 -19.1058 -19.0236 -18.9408 -18.9107 -18.8804 -18.8736
     5.5351   6.7004   9.0113   9.5198   9.8727  10.1425  10.6799

          k = 0.0833 0.2406-0.3137 (  3324 PWs)   bands (ev):

   -40.0927 -40.0927 -19.0655 -19.0655 -18.9146 -18.9146 -18.8876 -18.8876
     6.0806   6.0806   9.3020   9.3020   9.9477   9.9478  10.7854

          k = 0.0833 0.3368 0.0000 (  3331 PWs)   bands (ev):

   -40.1045 -40.0632 -19.1253 -19.0627 -19.0154 -18.9449 -18.8691 -18.8637
     5.5302   8.2280   8.4420   8.9969  10.1535  10.2069  10.5119

          k = 0.0833 0.3368 0.0784 (  3332 PWs)   bands (ev):

   -40.1029 -40.0648 -19.1322 -19.0489 -19.0189 -18.9448 -18.8740 -18.8626
     5.6067   8.0791   8.4843   9.0346  10.0633  10.2732  10.4946

          k = 0.0833 0.3368 0.1568 (  3328 PWs)   bands (ev):

   -40.0984 -40.0693 -19.1376 -19.0544 -18.9986 -18.9401 -18.8846 -18.8665
     5.8310   7.6819   8.6324   9.1247   9.9205  10.2224  10.5647

          k = 0.0833 0.3368 0.2353 (  3338 PWs)   bands (ev):

   -40.0918 -40.0760 -19.1308 -19.0830 -18.9605 -18.9293 -18.8985 -18.8800
     6.1878   7.1699   8.8582   9.1969   9.7865  10.0297  10.7544

          k = 0.0833 0.3368-0.3137 (  3336 PWs)   bands (ev):

   -40.0839 -40.0839 -19.1113 -19.1113 -18.9307 -18.9307 -18.8992 -18.8992
     6.6489   6.6489   9.0945   9.0945   9.8312   9.8312  10.9916

          k = 0.0833 0.4330 0.0000 (  3333 PWs)   bands (ev):

   -40.0913 -40.0612 -19.1230 -19.0813 -19.0633 -18.9694 -18.8912 -18.8811
     6.3940   8.2001   8.2588   8.7324  10.0389  10.2797  10.3233

          k = 0.0833 0.4330 0.0784 (  3332 PWs)   bands (ev):

   -40.0901 -40.0624 -19.1421 -19.0814 -19.0458 -18.9668 -18.8925 -18.8804
     6.4462   8.0676   8.3530   8.7835   9.9876  10.2631  10.3668

          k = 0.0833 0.4330 0.1568 (  3328 PWs)   bands (ev):

   -40.0869 -40.0656 -19.1620 -19.1055 -19.0041 -18.9566 -18.9015 -18.8791
     6.5991   7.8141   8.5221   8.8965   9.8841  10.1561  10.5196

          k = 0.0833 0.4330 0.2353 (  3334 PWs)   bands (ev):

   -40.0820 -40.0705 -19.1675 -19.1345 -18.9678 -18.9383 -18.9145 -18.8859
     6.8408   7.4899   8.7457   8.9903   9.7970   9.9700  10.7705

          k = 0.0833 0.4330-0.3137 (  3344 PWs)   bands (ev):

   -40.0763 -40.0763 -19.1573 -19.1573 -18.9430 -18.9430 -18.9039 -18.9039
     7.1493   7.1493   8.9444   8.9444   9.8144   9.8144  11.0961

          k = 0.0833 0.5292 0.0000 (  3335 PWs)   bands (ev):

   -40.0824 -40.0613 -19.1579 -19.0909 -19.0477 -18.9828 -18.9151 -18.8880
     7.1527   7.9478   8.1653   8.5459   9.9731  10.1237  10.5204

          k = 0.0833 0.5292 0.0784 (  3338 PWs)   bands (ev):

   -40.0816 -40.0621 -19.1690 -19.1041 -19.0303 -18.9773 -18.9122 -18.8892
     7.1576   7.8962   8.2673   8.5680   9.9885  10.1308  10.5073

          k = 0.0833 0.5292 0.1568 (  3337 PWs)   bands (ev):

   -40.0793 -40.0644 -19.1862 -19.1332 -18.9994 -18.9592 -18.9151 -18.8886
     7.1894   7.7708   8.4862   8.6733   9.9889  10.0692  10.5799

          k = 0.0833 0.5292 0.2353 (  3337 PWs)   bands (ev):

   -40.0759 -40.0678 -19.1932 -19.1635 -18.9732 -18.9345 -18.9259 -18.8906
     7.2735   7.5946   8.7246   8.8478   9.8828   9.9539  10.8228

          k = 0.0833 0.5292-0.3137 (  3338 PWs)   bands (ev):

   -40.0718 -40.0718 -19.1853 -19.1853 -18.9507 -18.9507 -18.9043 -18.9043
     7.4151   7.4151   8.8929   8.8929   9.8460   9.8460  11.1733

          k = 0.1667 0.2887 0.0000 (  3336 PWs)   bands (ev):

   -40.1064 -40.0636 -19.1314 -19.0326 -19.0249 -18.9336 -18.8789 -18.8603
     5.4165   8.2646   8.4968   9.0010  10.1439  10.1625  10.6005

          k = 0.1667 0.2887 0.0784 (  3342 PWs)   bands (ev):

   -40.1048 -40.0653 -19.1332 -19.0290 -19.0194 -18.9388 -18.8819 -18.8596
     5.4962   8.1108   8.5267   9.0347  10.1122  10.1930  10.5458

          k = 0.1667 0.2887 0.1568 (  3339 PWs)   bands (ev):

   -40.1002 -40.0699 -19.1322 -19.0445 -18.9882 -18.9445 -18.8900 -18.8630
     5.7302   7.6835   8.6689   9.1275   9.9625  10.1836  10.5378

          k = 0.1667 0.2887 0.2353 (  3331 PWs)   bands (ev):

   -40.0932 -40.0769 -19.1211 -19.0709 -18.9539 -18.9414 -18.8993 -18.8762
     6.1031   7.1371   8.8967   9.2252   9.7796   9.9887  10.7117

          k = 0.1667 0.2887-0.3137 (  3332 PWs)   bands (ev):

   -40.0851 -40.0851 -19.0992 -19.0992 -18.9368 -18.9368 -18.8955 -18.8955
     6.5870   6.5870   9.1403   9.1403   9.7878   9.7879  10.9353

          k = 0.1667 0.3849 0.0000 (  3342 PWs)   bands (ev):

   -40.0935 -40.0614 -19.0892 -19.0884 -19.0594 -18.9661 -18.9014 -18.8859
     6.2280   8.3454   8.4206   8.7016   9.9500  10.2304  10.3589

          k = 0.1667 0.3849 0.0784 (  3328 PWs)   bands (ev):

   -40.0923 -40.0626 -19.1188 -19.0794 -19.0355 -18.9708 -18.9056 -18.8802
     6.2913   8.2264   8.4804   8.7470   9.9138  10.2542  10.3087

          k = 0.1667 0.3849 0.1568 (  3337 PWs)   bands (ev):

   -40.0888 -40.0661 -19.1392 -19.0933 -18.9972 -18.9717 -18.9141 -18.8745
     6.4763   7.9379   8.6254   8.8559   9.8179  10.0752  10.4342

          k = 0.1667 0.3849 0.2353 (  3338 PWs)   bands (ev):

   -40.0836 -40.0713 -19.1448 -19.1157 -18.9764 -18.9576 -18.9160 -18.8794
     6.7682   7.5507   8.8275   8.9816   9.6896   9.8322  10.6674

          k = 0.1667 0.3849-0.3137 (  3332 PWs)   bands (ev):

   -40.0774 -40.0774 -19.1356 -19.1356 -18.9626 -18.9626 -18.8967 -18.8967
     7.1404   7.1404   8.9963   8.9963   9.6588   9.6588  10.9763

          k = 0.1667 0.4811 0.0000 (  3339 PWs)   bands (ev):

   -40.0825 -40.0613 -19.1314 -19.0757 -19.0484 -18.9975 -18.9164 -18.9145
     7.0545   8.2472   8.2581   8.5344   9.8665  10.1085  10.4880

          k = 0.1667 0.4811 0.0784 (  3334 PWs)   bands (ev):

   -40.0817 -40.0621 -19.1419 -19.0923 -19.0304 -18.9921 -18.9255 -18.9014
     7.0898   8.1466   8.3494   8.6058   9.8387  10.0454  10.5065

          k = 0.1667 0.4811 0.1568 (  3335 PWs)   bands (ev):

   -40.0794 -40.0644 -19.1596 -19.1178 -19.0164 -18.9673 -18.9341 -18.8877
     7.1933   7.9894   8.5112   8.7664   9.7495   9.8710  10.5944

          k = 0.1667 0.4811 0.2353 (  3335 PWs)   bands (ev):

   -40.0759 -40.0678 -19.1684 -19.1442 -19.0017 -18.9651 -18.9189 -18.8841
     7.3572   7.7867   8.7399   8.9351   9.6203   9.6395  10.7818

          k = 0.1667 0.4811-0.3137 (  3334 PWs)   bands (ev):

   -40.0718 -40.0718 -19.1629 -19.1629 -18.9830 -18.9830 -18.8951 -18.8951
     7.5644   7.5644   8.9486   8.9486   9.5257   9.5257  11.0662

          k = 0.1667 0.5774 0.0000 (  3320 PWs)   bands (ev):

   -40.0775 -40.0621 -19.1469 -19.0799 -19.0276 -19.0109 -18.9308 -18.9218
     7.5575   8.0302   8.2307   8.4395   9.9103   9.9422  10.6164

          k = 0.1667 0.5774 0.0784 (  3332 PWs)   bands (ev):

   -40.0769 -40.0627 -19.1553 -19.0938 -19.0329 -18.9875 -18.9374 -18.9108
     7.5495   8.0172   8.3223   8.4717   9.8739   9.9067  10.6294

          k = 0.1667 0.5774 0.1568 (  3334 PWs)   bands (ev):

   -40.0753 -40.0644 -19.1704 -19.1237 -19.0270 -18.9506 -18.9504 -18.8946
     7.5562   7.9554   8.5531   8.5923   9.7670   9.7744  10.7071

          k = 0.1667 0.5774 0.2353 (  3339 PWs)   bands (ev):

   -40.0728 -40.0669 -19.1785 -19.1533 -19.0113 -18.9693 -18.9167 -18.8871
     7.6109   7.8418   8.7993   8.8362   9.5555   9.5949  10.8856

          k = 0.1667 0.5774-0.3137 (  3336 PWs)   bands (ev):

   -40.0698 -40.0698 -19.1730 -19.1730 -18.9907 -18.9907 -18.8942 -18.8942
     7.7140   7.7140   8.9790   8.9790   9.4333   9.4333  11.1552

          k = 0.2500 0.4330 0.0000 (  3348 PWs)   bands (ev):

   -40.0825 -40.0612 -19.1086 -19.0789 -19.0487 -18.9969 -18.9373 -18.9142
     7.0187   8.3110   8.4427   8.4833   9.7905  10.1184  10.4549

          k = 0.2500 0.4330 0.0784 (  3335 PWs)   bands (ev):

   -40.0817 -40.0620 -19.1106 -19.1070 -19.0164 -19.0071 -18.9397 -18.9035
     7.0655   8.2490   8.4799   8.5594   9.7745  10.0141  10.4652

          k = 0.2500 0.4330 0.1568 (  3332 PWs)   bands (ev):

   -40.0794 -40.0643 -19.1354 -19.1199 -19.0182 -18.9833 -18.9392 -18.8877
     7.2007   8.1111   8.5894   8.7179   9.7078   9.7708  10.5222

          k = 0.2500 0.4330 0.2353 (  3340 PWs)   bands (ev):

   -40.0759 -40.0678 -19.1498 -19.1361 -19.0144 -18.9844 -18.9160 -18.8824
     7.4077   7.9065   8.7595   8.8943   9.5132   9.5717  10.6815

          k = 0.2500 0.4330-0.3137 (  3344 PWs)   bands (ev):

   -40.0719 -40.0719 -19.1489 -19.1489 -19.0001 -19.0001 -18.8924 -18.8924
     7.6571   7.6571   8.9276   8.9276   9.4314   9.4315  10.9667

          k = 0.2500 0.5292 0.0000 (  3334 PWs)   bands (ev):

   -40.0741 -40.0632 -19.1238 -19.0677 -19.0316 -19.0124 -18.9600 -18.9433
     7.7103   8.2602   8.3131   8.3779   9.7646   9.8929  10.6790

          k = 0.2500 0.5292 0.0784 (  3339 PWs)   bands (ev):

   -40.0737 -40.0636 -19.1269 -19.0866 -19.0470 -18.9871 -18.9643 -18.9267
     7.7386   8.2331   8.3455   8.4665   9.7243   9.7977  10.6833

          k = 0.2500 0.5292 0.1568 (  3337 PWs)   bands (ev):

   -40.0725 -40.0648 -19.1392 -19.1137 -19.0567 -18.9862 -18.9395 -18.9024
     7.8168   8.1897   8.4693   8.6498   9.5480   9.6103  10.7186

          k = 0.2500 0.5292 0.2353 (  3342 PWs)   bands (ev):

   -40.0707 -40.0665 -19.1516 -19.1378 -19.0467 -19.0050 -18.9079 -18.8880
     7.9260   8.1299   8.6736   8.8874   9.2480   9.4071  10.8327

          k = 0.2500 0.5292-0.3137 (  3336 PWs)   bands (ev):

   -40.0686 -40.0686 -19.1518 -19.1518 -19.0269 -19.0269 -18.8895 -18.8895
     8.0392   8.0392   8.9387   8.9387   9.1569   9.1569  11.0624

          k = 0.3333 0.5774 0.0000 (  3360 PWs)   bands (ev):

   -40.0675 -40.0675 -19.1143 -19.0529 -19.0529 -18.9858 -18.9766 -18.9766
     8.1593   8.1593   8.2628   8.3494   9.7613   9.7613  10.7737

          k = 0.3333 0.5774 0.0784 (  3339 PWs)   bands (ev):

   -40.0675 -40.0675 -19.1095 -19.0744 -19.0744 -18.9907 -18.9548 -18.9548
     8.2051   8.2051   8.2819   8.3681   9.6838   9.6838  10.7725

          k = 0.3333 0.5774 0.1568 (  3330 PWs)   bands (ev):

   -40.0675 -40.0675 -19.1076 -19.1076 -19.0957 -19.0048 -18.9210 -18.9210
     8.3322   8.3355   8.3355   8.4107   9.4833   9.4833  10.7894

          k = 0.3333 0.5774 0.2353 (  3327 PWs)   bands (ev):

   -40.0674 -40.0674 -19.1316 -19.1316 -19.0750 -19.0258 -18.8964 -18.8964
     8.3946   8.4449   8.5236   8.5236   9.2331   9.2331  10.8759

          k = 0.3333 0.5774-0.3137 (  3336 PWs)   bands (ev):

   -40.0674 -40.0674 -19.1402 -19.1402 -19.0505 -19.0505 -18.8876 -18.8876
     8.4402   8.4402   8.6544   8.6544   9.0783   9.0783  11.0803

     the Fermi energy is     8.8159 ev

!    total energy              =    -306.87247729 Ry
     total all-electron energy =     -3050.013248 Ry
     estimated scf accuracy    <          2.1E-09 Ry
     smearing contrib. (-TS)   =      -0.00103940 Ry
     internal energy E=F+TS    =    -306.87143789 Ry

     The total energy is F=E-TS. E is the sum of the following terms:
     one-electron contribution =     -74.40565863 Ry
     hartree contribution      =      42.28516180 Ry
     xc contribution           =     -34.52783474 Ry
     ewald contribution        =    -126.46581261 Ry
     one-center paw contrib.   =    -113.75729370 Ry

     convergence has been achieved in  13 iterations

     Forces acting on atoms (cartesian axes, Ry/au):

     atom    1 type  1   force =     0.00000000    0.00000000    0.00000000
     atom    2 type  1   force =    -0.00000000   -0.00000000    0.00000000
     The non-local contrib.  to forces
     atom    1 type  1   force =     0.00000000    0.00000000    0.00000000
     atom    2 type  1   force =     0.00000000   -0.00000000    0.00000000
     The ionic contribution  to forces
     atom    1 type  1   force =     0.00000000   -0.00000000    0.00000000
     atom    2 type  1   force =    -0.00000000    0.00000000    0.00000000
     The local contribution  to forces
     atom    1 type  1   force =     0.00000000    0.00000000    0.00000000
     atom    2 type  1   force =    -0.00000000    0.00000000    0.00000000
     The core correction contribution to forces
     atom    1 type  1   force =    -0.00000000   -0.00000000    0.00000000
     atom    2 type  1   force =     0.00000000   -0.00000000    0.00000000
     The Hubbard contrib.    to forces
     atom    1 type  1   force =     0.00000000    0.00000000    0.00000000
     atom    2 type  1   force =     0.00000000    0.00000000    0.00000000
     The SCF correction term to forces
     atom    1 type  1   force =     0.00000000   -0.00000000    0.00000000
     atom    2 type  1   force =    -0.00000000    0.00000000    0.00000000

     Total force =     0.000000     Total SCF correction =     0.000000


     Computing stress (Cartesian axis) and pressure

          total   stress  (Ry/bohr**3)                   (kbar)     P=      -57.28
  -0.00034916  -0.00000000   0.00000000          -51.36       -0.00        0.00
  -0.00000000  -0.00034916  -0.00000000           -0.00      -51.36       -0.00
   0.00000000  -0.00000000  -0.00046989            0.00       -0.00      -69.12


     BFGS Geometry Optimization
     Energy error            =      0.0E+00 Ry
     Gradient error          =      2.2E-27 Ry/Bohr
     Cell gradient error     =      6.9E+01 kbar

     number of scf cycles    =   1
     number of bfgs steps    =   0

     enthalpy           new  =    -306.8724772911 Ry

     new trust radius        =       0.0431638903 bohr
     new conv_thr            =       0.0000000100 Ry

     new unit-cell volume =    327.76208 a.u.^3 (    48.56933 Ang^3 )
     density =      3.04939 g/cm^3

CELL_PARAMETERS (alat=  6.25310370)
   0.991271060  -0.000000000   0.000000000
  -0.495635530   0.858465920  -0.000000000
   0.000000000  -0.000000000   1.575274821

ATOMIC_POSITIONS (crystal)
Sc            0.0000000000        0.0000000000       -0.0000000000
Sc            0.6666666667        0.3333333333        0.5000000000



     Writing config-only to output data dir sc_vcrelax.out/scandium.save/
     NEW-OLD atomic charge density approx. for the potential

     Check: negative core charge=   -0.000009
     extrapolated charge   21.34483, renormalised to   22.00000

     total cpu time spent up to now is      238.9 secs

     Self-consistent Calculation

     iteration #  1     ecut=    70.00 Ry     beta= 0.70
     Davidson diagonalization with overlap
     c_bands:  1 eigenvalues not converged
     c_bands:  1 eigenvalues not converged
     c_bands:  1 eigenvalues not converged
     c_bands:  1 eigenvalues not converged
     c_bands:  2 eigenvalues not converged
     c_bands:  2 eigenvalues not converged
     c_bands:  1 eigenvalues not converged
     c_bands:  1 eigenvalues not converged
     c_bands:  2 eigenvalues not converged
     c_bands:  3 eigenvalues not converged
     c_bands:  5 eigenvalues not converged
     c_bands:  3 eigenvalues not converged
     c_bands:  4 eigenvalues not converged
     c_bands:  5 eigenvalues not converged
     c_bands:  1 eigenvalues not converged
     c_bands:  5 eigenvalues not converged
     c_bands:  5 eigenvalues not converged
     c_bands:  4 eigenvalues not converged
     c_bands:  1 eigenvalues not converged
     c_bands:  1 eigenvalues not converged
     c_bands:  1 eigenvalues not converged
     c_bands:  2 eigenvalues not converged
     c_bands:  1 eigenvalues not converged
     c_bands:  1 eigenvalues not converged
     c_bands:  2 eigenvalues not converged
     c_bands:  3 eigenvalues not converged
     c_bands:  4 eigenvalues not converged
     c_bands:  2 eigenvalues not converged
     c_bands:  4 eigenvalues not converged
     c_bands:  2 eigenvalues not converged
     c_bands:  1 eigenvalues not converged
     c_bands:  3 eigenvalues not converged
     c_bands:  5 eigenvalues not converged
     c_bands:  1 eigenvalues not converged
     c_bands:  5 eigenvalues not converged
     c_bands:  5 eigenvalues not converged
     c_bands:  5 eigenvalues not converged
     c_bands:  3 eigenvalues not converged
     c_bands:  2 eigenvalues not converged
     c_bands:  2 eigenvalues not converged
     c_bands:  3 eigenvalues not converged
     c_bands:  2 eigenvalues not converged
     c_bands:  1 eigenvalues not converged
     c_bands:  2 eigenvalues not converged
     c_bands:  2 eigenvalues not converged
     c_bands:  4 eigenvalues not converged
     c_bands:  2 eigenvalues not converged
     c_bands:  1 eigenvalues not converged
     c_bands:  3 eigenvalues not converged
     c_bands:  1 eigenvalues not converged
     c_bands:  5 eigenvalues not converged
     c_bands:  4 eigenvalues not converged
     c_bands:  2 eigenvalues not converged
     c_bands:  2 eigenvalues not converged
     c_bands:  2 eigenvalues not converged
     c_bands:  2 eigenvalues not converged
     c_bands:  1 eigenvalues not converged
     c_bands:  3 eigenvalues not converged
     c_bands:  3 eigenvalues not converged
     c_bands:  3 eigenvalues not converged
     c_bands:  3 eigenvalues not converged
     c_bands:  2 eigenvalues not converged
     c_bands:  1 eigenvalues not converged
     c_bands:  1 eigenvalues not converged
     ethr =  1.00E-06,  avg # of iterations = 19.5

     total cpu time spent up to now is      301.5 secs

     total energy              =    -306.75460727 Ry
     estimated scf accuracy    <       0.08749585 Ry

     iteration #  2     ecut=    70.00 Ry     beta= 0.70
     Davidson diagonalization with overlap
     ethr =  3.98E-04,  avg # of iterations =  7.2

     total cpu time spent up to now is      325.7 secs

     total energy              =    -306.87913284 Ry
     estimated scf accuracy    <       0.14653599 Ry

     iteration #  3     ecut=    70.00 Ry     beta= 0.70
     Davidson diagonalization with overlap
     ethr =  3.98E-04,  avg # of iterations =  1.4

     total cpu time spent up to now is      341.7 secs

     total energy              =    -306.87426465 Ry
     estimated scf accuracy    <       0.04405154 Ry

     iteration #  4     ecut=    70.00 Ry     beta= 0.70
     Davidson diagonalization with overlap
     ethr =  2.00E-04,  avg # of iterations =  2.3

     total cpu time spent up to now is      351.7 secs

     total energy              =    -306.87294620 Ry
     estimated scf accuracy    <       0.01946309 Ry

     iteration #  5     ecut=    70.00 Ry     beta= 0.70
     Davidson diagonalization with overlap
     ethr =  8.85E-05,  avg # of iterations =  2.5

     total cpu time spent up to now is      357.1 secs

     total energy              =    -306.87461584 Ry
     estimated scf accuracy    <       0.00874761 Ry

     iteration #  6     ecut=    70.00 Ry     beta= 0.70
     Davidson diagonalization with overlap
     ethr =  3.98E-05,  avg # of iterations =  4.2

     total cpu time spent up to now is      358.9 secs

     total energy              =    -306.87617135 Ry
     estimated scf accuracy    <       0.00578786 Ry

     iteration #  7     ecut=    70.00 Ry     beta= 0.70
     Davidson diagonalization with overlap
     ethr =  2.63E-05,  avg # of iterations =  2.4

     total cpu time spent up to now is      360.7 secs

     total energy              =    -306.87715154 Ry
     estimated scf accuracy    <       0.00479016 Ry

     iteration #  8     ecut=    70.00 Ry     beta= 0.70
     Davidson diagonalization with overlap
     ethr =  2.18E-05,  avg # of iterations =  1.5

     total cpu time spent up to now is      362.2 secs

     total energy              =    -306.87854960 Ry
     estimated scf accuracy    <       0.00537134 Ry

     iteration #  9     ecut=    70.00 Ry     beta= 0.70
     Davidson diagonalization with overlap
     ethr =  2.18E-05,  avg # of iterations =  1.1

     total cpu time spent up to now is      363.8 secs

     total energy              =    -306.87449802 Ry
     estimated scf accuracy    <       0.00738350 Ry

     iteration # 10     ecut=    70.00 Ry     beta= 0.70
     Davidson diagonalization with overlap
     ethr =  2.18E-05,  avg # of iterations =  3.2

     total cpu time spent up to now is      366.6 secs

     total energy              =    -306.87489069 Ry
     estimated scf accuracy    <       0.00107868 Ry

     iteration # 11     ecut=    70.00 Ry     beta= 0.70
     Davidson diagonalization with overlap
     ethr =  4.90E-06,  avg # of iterations =  8.9

     total cpu time spent up to now is      370.9 secs

     total energy              =    -306.87651510 Ry
     estimated scf accuracy    <       0.00129085 Ry

     iteration # 12     ecut=    70.00 Ry     beta= 0.70
     Davidson diagonalization with overlap
     ethr =  4.90E-06,  avg # of iterations =  1.7

     total cpu time spent up to now is      372.8 secs

     total energy              =    -306.87661373 Ry
     estimated scf accuracy    <       0.00140167 Ry

     iteration # 13     ecut=    70.00 Ry     beta= 0.70
     Davidson diagonalization with overlap
     ethr =  4.90E-06,  avg # of iterations =  1.1

     total cpu time spent up to now is      374.6 secs

     total energy              =    -306.87622597 Ry
     estimated scf accuracy    <       0.00153153 Ry

     iteration # 14     ecut=    70.00 Ry     beta= 0.70
     Davidson diagonalization with overlap
     ethr =  4.90E-06,  avg # of iterations =  1.0

     total cpu time spent up to now is      376.0 secs

     total energy              =    -306.87565434 Ry
     estimated scf accuracy    <       0.00087583 Ry

     iteration # 15     ecut=    70.00 Ry     beta= 0.70
     Davidson diagonalization with overlap
     ethr =  3.98E-06,  avg # of iterations =  2.9

     total cpu time spent up to now is      378.1 secs

     total energy              =    -306.87601918 Ry
     estimated scf accuracy    <       0.00002442 Ry

     iteration # 16     ecut=    70.00 Ry     beta= 0.70
     Davidson diagonalization with overlap
     ethr =  1.11E-07,  avg # of iterations = 15.6

     total cpu time spent up to now is      383.3 secs

     total energy              =    -306.87631505 Ry
     estimated scf accuracy    <       0.00212412 Ry

     iteration # 17     ecut=    70.00 Ry     beta= 0.70
     Davidson diagonalization with overlap
     ethr =  1.11E-07,  avg # of iterations =  6.5

     total cpu time spent up to now is      385.5 secs

     total energy              =    -306.87676200 Ry
     estimated scf accuracy    <       0.00117759 Ry

     iteration # 18     ecut=    70.00 Ry     beta= 0.70
     Davidson diagonalization with overlap
     ethr =  1.11E-07,  avg # of iterations =  7.0

     total cpu time spent up to now is      387.7 secs

     total energy              =    -306.87629573 Ry
     estimated scf accuracy    <       0.00224836 Ry

     iteration # 19     ecut=    70.00 Ry     beta= 0.70
     Davidson diagonalization with overlap
     ethr =  1.11E-07,  avg # of iterations =  6.9

     total cpu time spent up to now is      389.8 secs

     total energy              =    -306.87617617 Ry
     estimated scf accuracy    <       0.00114646 Ry

     iteration # 20     ecut=    70.00 Ry     beta= 0.70
     Davidson diagonalization with overlap
     ethr =  1.11E-07,  avg # of iterations =  5.0

     total cpu time spent up to now is      391.6 secs

     total energy              =    -306.87589976 Ry
     estimated scf accuracy    <       0.00077519 Ry

     iteration # 21     ecut=    70.00 Ry     beta= 0.70
     Davidson diagonalization with overlap
     ethr =  1.11E-07,  avg # of iterations =  8.0

     total cpu time spent up to now is      393.9 secs

     total energy              =    -306.87588295 Ry
     estimated scf accuracy    <       0.00013770 Ry

     iteration # 22     ecut=    70.00 Ry     beta= 0.70
     Davidson diagonalization with overlap
     ethr =  1.11E-07,  avg # of iterations =  7.0

     total cpu time spent up to now is      396.0 secs

     total energy              =    -306.87591262 Ry
     estimated scf accuracy    <       0.00000065 Ry

     iteration # 23     ecut=    70.00 Ry     beta= 0.70
     Davidson diagonalization with overlap
     ethr =  2.94E-09,  avg # of iterations = 12.7

     total cpu time spent up to now is      399.3 secs

     total energy              =    -306.87591552 Ry
     estimated scf accuracy    <       0.00000027 Ry

     iteration # 24     ecut=    70.00 Ry     beta= 0.70
     Davidson diagonalization with overlap
     ethr =  1.24E-09,  avg # of iterations =  3.4

     total cpu time spent up to now is      400.7 secs

     total energy              =    -306.87591530 Ry
     estimated scf accuracy    <       0.00000045 Ry

     iteration # 25     ecut=    70.00 Ry     beta= 0.70
     Davidson diagonalization with overlap
     ethr =  1.24E-09,  avg # of iterations =  4.0

     total cpu time spent up to now is      402.3 secs

     total energy              =    -306.87591535 Ry
     estimated scf accuracy    <       0.00000002 Ry

     iteration # 26     ecut=    70.00 Ry     beta= 0.70
     Davidson diagonalization with overlap
     ethr =  1.04E-10,  avg # of iterations = 10.1

     total cpu time spent up to now is      405.1 secs

     End of self-consistent calculation

          k = 0.0000 0.0000 0.0000 (  3381 PWs)   bands (ev):

   -39.7322 -39.6583 -18.8440 -18.4739 -18.4739 -18.4088 -18.4088 -18.3894
     4.0316   7.4422   9.7126  10.7192  10.7192  10.8541  11.1449

          k =-0.0000 0.0000 0.0794 (  3363 PWs)   bands (ev):

   -39.7293 -39.6611 -18.8273 -18.4714 -18.4714 -18.4113 -18.4113 -18.4073
     4.1360   7.2976   9.6678  10.6734  10.6734  10.7859  11.0857

          k =-0.0000 0.0000 0.1587 (  3315 PWs)   bands (ev):

   -39.7213 -39.6691 -18.7794 -18.4643 -18.4643 -18.4580 -18.4183 -18.4183
     4.4419   6.8666   9.6508  10.5950  10.6070  10.6070  10.9428

          k =-0.0000 0.0000 0.2381 (  3320 PWs)   bands (ev):

   -39.7094 -39.6812 -18.7071 -18.5332 -18.4538 -18.4538 -18.4289 -18.4289
     4.9266   6.2335   9.7782  10.3212  10.5940  10.5944  10.7814

          k = 0.0000-0.0000-0.3174 (  3326 PWs)   bands (ev):

   -39.6953 -39.6953 -18.6208 -18.6208 -18.4414 -18.4414 -18.4414 -18.4414
     5.5477   5.5477  10.0253  10.0253  10.6550  10.6550  10.6550

          k = 0.0000 0.0971 0.0000 (  3361 PWs)   bands (ev):

   -39.7284 -39.6568 -18.8342 -18.4939 -18.4805 -18.4297 -18.4116 -18.3935
     4.1866   7.5746   9.5761  10.4418  10.8327  11.0215  11.0990

          k = 0.0000 0.0971 0.0794 (  3360 PWs)   bands (ev):

   -39.7257 -39.6595 -18.8185 -18.4909 -18.4779 -18.4387 -18.4142 -18.4042
     4.2894   7.4301   9.5338  10.4371  10.7742  10.8913  11.0175

          k = 0.0000 0.0971 0.1587 (  3346 PWs)   bands (ev):

   -39.7180 -39.6673 -18.7736 -18.4832 -18.4758 -18.4705 -18.4225 -18.4217
     4.5908   6.9970   9.5320  10.4423  10.6085  10.6963  11.0296

          k = 0.0000 0.0971 0.2381 (  3345 PWs)   bands (ev):

   -39.7064 -39.6790 -18.7058 -18.5441 -18.4695 -18.4593 -18.4383 -18.4329
     5.0689   6.3638   9.6820  10.2818  10.4901  10.6804  10.7502

          k = 0.0000 0.0971-0.3174 (  3338 PWs)   bands (ev):

   -39.6927 -39.6927 -18.6251 -18.6251 -18.4543 -18.4543 -18.4461 -18.4461
     5.6829   5.6829   9.9537   9.9537  10.5957  10.5966  10.7416

          k = 0.0000 0.1941 0.0000 (  3355 PWs)   bands (ev):

   -39.7180 -39.6529 -18.8063 -18.5489 -18.4983 -18.4858 -18.4196 -18.4060
     4.6359   7.9285   9.2637  10.0130  10.7863  11.1625  11.1887

          k = 0.0000 0.1941 0.0794 (  3354 PWs)   bands (ev):

   -39.7155 -39.6554 -18.7940 -18.5443 -18.4966 -18.4953 -18.4226 -18.4129
     4.7335   7.7859   9.2327  10.0329  10.7772  10.9236  11.0008

          k = 0.0000 0.1941 0.1587 (  3354 PWs)   bands (ev):

   -39.7085 -39.6625 -18.7590 -18.5373 -18.5225 -18.4868 -18.4312 -18.4309
     5.0199   7.3495   9.2731  10.0910  10.5425  10.7876  10.9062

          k = 0.0000 0.1941 0.2381 (  3349 PWs)   bands (ev):

   -39.6980 -39.6730 -18.7064 -18.5828 -18.5071 -18.4741 -18.4553 -18.4440
     5.4753   6.7229   9.4696  10.0795  10.3186  10.6319  10.9002

          k = 0.0000 0.1941-0.3174 (  3340 PWs)   bands (ev):

   -39.6855 -39.6855 -18.6443 -18.6443 -18.4819 -18.4819 -18.4591 -18.4591
     6.0634   6.0634   9.7716   9.7716  10.4418  10.4418  10.9756

          k = 0.0000 0.2912 0.0000 (  3328 PWs)   bands (ev):

   -39.7030 -39.6481 -18.7643 -18.6249 -18.5601 -18.5215 -18.4314 -18.4270
     5.3310   8.3366   8.9269   9.5767  10.5648  10.8458  10.9343

          k = 0.0000 0.2912 0.0794 (  3329 PWs)   bands (ev):

   -39.7010 -39.6502 -18.7605 -18.6152 -18.5704 -18.5181 -18.4349 -18.4304
     5.4181   8.2026   8.9234   9.6085  10.5323  10.7890  10.9480

          k = 0.0000 0.2912 0.1587 (  3345 PWs)   bands (ev):

   -39.6950 -39.6562 -18.7474 -18.6111 -18.5761 -18.5084 -18.4447 -18.4429
     5.6737   7.7812   9.0289   9.6877  10.3772  10.6788  10.9997

          k = 0.0000 0.2912 0.2381 (  3344 PWs)   bands (ev):

   -39.6862 -39.6651 -18.7229 -18.6475 -18.5411 -18.4939 -18.4669 -18.4594
     6.0804   7.2019   9.2586   9.7263  10.2138  10.5009  11.1053

          k = 0.0000 0.2912-0.3174 (  3340 PWs)   bands (ev):

   -39.6757 -39.6757 -18.6881 -18.6881 -18.5013 -18.5013 -18.4767 -18.4767
     6.6069   6.6069   9.5392   9.5392  10.2935  10.2935  11.2658

          k = 0.0000 0.3883 0.0000 (  3326 PWs)   bands (ev):

   -39.6869 -39.6445 -18.7151 -18.7015 -18.6319 -18.5441 -18.4551 -18.4438
     6.1822   8.4845   8.6523   9.2435  10.5972  10.5986  10.7138

          k = 0.0000 0.3883 0.0794 (  3331 PWs)   bands (ev):

   -39.6853 -39.6462 -18.7435 -18.6680 -18.6373 -18.5403 -18.4548 -18.4477
     6.2495   8.3570   8.7109   9.2861  10.4410  10.6855  10.7653

          k = 0.0000 0.3883 0.1587 (  3326 PWs)   bands (ev):

   -39.6807 -39.6508 -18.7619 -18.6816 -18.6009 -18.5295 -18.4590 -18.4586
     6.4466   8.0313   8.8730   9.3771  10.2886  10.6336  10.9168

          k = 0.0000 0.3883 0.2381 (  3329 PWs)   bands (ev):

   -39.6739 -39.6577 -18.7623 -18.7159 -18.5501 -18.5133 -18.4751 -18.4750
     6.7584   7.6034   9.1051   9.4320  10.1984  10.4566  11.1570

          k = 0.0000 0.3883-0.3174 (  3338 PWs)   bands (ev):

   -39.6658 -39.6658 -18.7455 -18.7455 -18.5062 -18.5062 -18.4942 -18.4942
     7.1581   7.1581   9.3324   9.3324  10.2642  10.2642  11.4650

          k = 0.0000 0.4854 0.0000 (  3346 PWs)   bands (ev):

   -39.6736 -39.6435 -18.7578 -18.6832 -18.6693 -18.5602 -18.4854 -18.4532
     7.0368   8.3110   8.4779   9.0014  10.4287  10.5670  10.8194

          k = 0.0000 0.4854 0.0794 (  3337 PWs)   bands (ev):

   -39.6724 -39.6446 -18.7741 -18.6991 -18.6409 -18.5562 -18.4813 -18.4573
     7.0655   8.2208   8.5788   9.0287  10.4369  10.6318  10.7706

          k = 0.0000 0.4854 0.1587 (  3338 PWs)   bands (ev):

   -39.6692 -39.6479 -18.7953 -18.7313 -18.5914 -18.5447 -18.4766 -18.4690
     7.1553   8.0299   8.7808   9.1253  10.4264  10.6434  10.8226

          k = 0.0000 0.4854 0.2381 (  3334 PWs)   bands (ev):

   -39.6643 -39.6528 -18.8023 -18.7659 -18.5429 -18.5274 -18.4865 -18.4826
     7.3111   7.7815   9.0231   9.2406  10.3647  10.4932  11.1289

          k = 0.0000 0.4854-0.3174 (  3334 PWs)   bands (ev):

   -39.6585 -39.6585 -18.7917 -18.7917 -18.5070 -18.5070 -18.5050 -18.5050
     7.5275   7.5275   9.2185   9.2185  10.3702  10.3702  11.5303

          k =-0.0000-0.5824-0.0000 (  3326 PWs)   bands (ev):

   -39.6679 -39.6438 -18.7785 -18.7017 -18.6477 -18.5661 -18.5013 -18.4567
     7.5465   8.0799   8.4187   8.8887  10.3686  10.5160  10.9225

          k =-0.0000-0.5824 0.0794 (  3336 PWs)   bands (ev):

   -39.6670 -39.6448 -18.7913 -18.7162 -18.6262 -18.5619 -18.4951 -18.4609
     7.5178   8.0597   8.5418   8.8784  10.4298  10.5842  10.8476

          k =-0.0000-0.5824 0.1587 (  3330 PWs)   bands (ev):

   -39.6644 -39.6474 -18.8108 -18.7492 -18.5820 -18.5502 -18.4857 -18.4728
     7.4908   7.9695   8.8267   8.9193  10.5368  10.6592  10.7860

          k =-0.0000-0.5824 0.2381 (  3338 PWs)   bands (ev):

   -39.6605 -39.6513 -18.8185 -18.7840 -18.5376 -18.5326 -18.4907 -18.4865
     7.5288   7.8084   9.0597   9.1094  10.4717  10.5476  11.1109

          k =-0.0000-0.5824-0.3174 (  3352 PWs)   bands (ev):

   -39.6559 -39.6559 -18.8092 -18.8092 -18.5117 -18.5117 -18.5040 -18.5040
     7.6429   7.6429   9.1895   9.1895  10.4528  10.4528  11.5396

          k = 0.0841 0.1456-0.0000 (  3369 PWs)   bands (ev):

   -39.7213 -39.6541 -18.8154 -18.5275 -18.5016 -18.4606 -18.4197 -18.4019
     4.4890   7.8202   9.3571  10.1289  10.8678  11.0705  11.1379

          k = 0.0841 0.1456 0.0794 (  3357 PWs)   bands (ev):

   -39.7188 -39.6567 -18.8019 -18.5234 -18.5008 -18.4696 -18.4226 -18.4092
     4.5885   7.6766   9.3216  10.1443  10.8772  10.8904  10.9574

          k = 0.0841 0.1456 0.1587 (  3351 PWs)   bands (ev):

   -39.7115 -39.6640 -18.7633 -18.5163 -18.5117 -18.4810 -18.4307 -18.4266
     4.8802   7.2403   9.3480  10.1936  10.5700  10.8130  10.8625

          k = 0.0841 0.1456 0.2381 (  3348 PWs)   bands (ev):

   -39.7006 -39.6749 -18.7053 -18.5690 -18.4942 -18.4734 -18.4473 -18.4427
     5.3438   6.6098   9.5320  10.1603  10.3510  10.6596  10.8457

          k = 0.0841 0.1456-0.3174 (  3340 PWs)   bands (ev):

   -39.6878 -39.6878 -18.6368 -18.6368 -18.4745 -18.4745 -18.4552 -18.4552
     5.9416   5.9416   9.8300   9.8300  10.4820  10.4822  10.9042

          k = 0.0841 0.2427 0.0000 (  3334 PWs)   bands (ev):

   -39.7086 -39.6498 -18.7803 -18.5878 -18.5506 -18.4983 -18.4337 -18.4187
     5.0635   8.2220   9.0523   9.7031  10.6346  10.8304  11.1325

          k = 0.0841 0.2427 0.0794 (  3343 PWs)   bands (ev):

   -39.7064 -39.6520 -18.7723 -18.5812 -18.5550 -18.5021 -18.4373 -18.4222
     5.1553   8.0833   9.0331   9.7318  10.6410  10.7573  11.0524

          k = 0.0841 0.2427 0.1587 (  3347 PWs)   bands (ev):

   -39.7000 -39.6584 -18.7490 -18.5826 -18.5555 -18.5031 -18.4470 -18.4342
     5.4249   7.6476   9.1118   9.8099  10.4515  10.6831  10.9986

          k = 0.0841 0.2427 0.2381 (  3341 PWs)   bands (ev):

   -39.6905 -39.6680 -18.7127 -18.6211 -18.5279 -18.4955 -18.4617 -18.4538
     5.8540   7.0385   9.3347   9.8554  10.2319  10.5144  11.0533

          k = 0.0841 0.2427-0.3174 (  3324 PWs)   bands (ev):

   -39.6793 -39.6793 -18.6679 -18.6679 -18.4990 -18.4990 -18.4697 -18.4697
     6.4100   6.4100   9.6329   9.6329  10.3099  10.3099  11.1641

          k = 0.0841 0.3398 0.0000 (  3331 PWs)   bands (ev):

   -39.6930 -39.6457 -18.7344 -18.6627 -18.6100 -18.5333 -18.4487 -18.4435
     5.8445   8.5362   8.7709   9.3212  10.5339  10.5703  10.8856

          k = 0.0841 0.3398 0.0794 (  3332 PWs)   bands (ev):

   -39.6912 -39.6475 -18.7418 -18.6477 -18.6139 -18.5333 -18.4542 -18.4420
     5.9221   8.4040   8.7988   9.3605  10.4297  10.6524  10.8643

          k = 0.0841 0.3398 0.1587 (  3328 PWs)   bands (ev):

   -39.6861 -39.6526 -18.7476 -18.6541 -18.5917 -18.5281 -18.4660 -18.4458
     6.1497   8.0151   8.9439   9.4543  10.2804  10.6028  10.9342

          k = 0.0841 0.3398 0.2381 (  3338 PWs)   bands (ev):

   -39.6785 -39.6603 -18.7399 -18.6862 -18.5495 -18.5159 -18.4814 -18.4607
     6.5110   7.5022   9.1769   9.5294  10.1427  10.3999  11.1318

          k = 0.0841 0.3398-0.3174 (  3336 PWs)   bands (ev):

   -39.6694 -39.6694 -18.7180 -18.7180 -18.5168 -18.5168 -18.4821 -18.4821
     6.9771   6.9771   9.4227   9.4227  10.1913  10.1913  11.3787

          k = 0.0841 0.4368 0.0000 (  3333 PWs)   bands (ev):

   -39.6781 -39.6436 -18.7290 -18.6855 -18.6619 -18.5604 -18.4741 -18.4616
     6.7167   8.4957   8.5667   9.0643  10.4044  10.6451  10.7124

          k = 0.0841 0.4368 0.0794 (  3332 PWs)   bands (ev):

   -39.6768 -39.6449 -18.7511 -18.6830 -18.6445 -18.5575 -18.4750 -18.4612
     6.7680   8.3735   8.6554   9.1160  10.3556  10.6346  10.7466

          k = 0.0841 0.4368 0.1587 (  3328 PWs)   bands (ev):

   -39.6730 -39.6486 -18.7735 -18.7099 -18.5982 -18.5460 -18.4845 -18.4598
     6.9184   8.1245   8.8303   9.2328  10.2514  10.5319  10.8942

          k = 0.0841 0.4368 0.2381 (  3334 PWs)   bands (ev):

   -39.6674 -39.6542 -18.7796 -18.7425 -18.5581 -18.5253 -18.4990 -18.4671
     7.1570   7.8022   9.0660   9.3304  10.1612  10.3412  11.1520

          k = 0.0841 0.4368-0.3174 (  3344 PWs)   bands (ev):

   -39.6608 -39.6608 -18.7682 -18.7682 -18.5306 -18.5306 -18.4870 -18.4870
     7.4631   7.4631   9.2785   9.2785  10.1798  10.1798  11.4900

          k = 0.0841 0.5339 0.0000 (  3335 PWs)   bands (ev):

   -39.6680 -39.6438 -18.7673 -18.6920 -18.6481 -18.5752 -18.5009 -18.4691
     7.4728   8.2442   8.4613   8.8837  10.3474  10.4777  10.9168

          k = 0.0841 0.5339 0.0794 (  3338 PWs)   bands (ev):

   -39.6671 -39.6447 -18.7801 -18.7071 -18.6283 -18.5690 -18.4971 -18.4706
     7.4718   8.1955   8.5722   8.9008  10.3666  10.4887  10.8988

          k = 0.0841 0.5339 0.1587 (  3337 PWs)   bands (ev):

   -39.6644 -39.6473 -18.7996 -18.7400 -18.5935 -18.5487 -18.4995 -18.4702
     7.4931   8.0735   8.8051   9.0047  10.3677  10.4410  10.9621

          k = 0.0841 0.5339 0.2381 (  3337 PWs)   bands (ev):

   -39.6605 -39.6513 -18.8076 -18.7743 -18.5642 -18.5210 -18.5115 -18.4722
     7.5704   7.8944   9.0523   9.1904  10.2476  10.3404  11.2093

          k = 0.0841 0.5339-0.3174 (  3338 PWs)   bands (ev):

   -39.6559 -39.6559 -18.7988 -18.7988 -18.5391 -18.5391 -18.4874 -18.4874
     7.7113   7.7113   9.2325   9.2325  10.2209  10.2209  11.5729

          k = 0.1681 0.2912-0.0000 (  3336 PWs)   bands (ev):

   -39.6952 -39.6461 -18.7411 -18.6293 -18.6212 -18.5204 -18.4595 -18.4397
     5.7297   8.5791   8.8306   9.3197  10.5202  10.5224  10.9796

          k = 0.1681 0.2912 0.0794 (  3342 PWs)   bands (ev):

   -39.6934 -39.6480 -18.7430 -18.6259 -18.6146 -18.5264 -18.4629 -18.4386
     5.8109   8.4432   8.8442   9.3548  10.4705  10.5729  10.9206

          k = 0.1681 0.2912 0.1587 (  3339 PWs)   bands (ev):

   -39.6881 -39.6533 -18.7418 -18.6433 -18.5801 -18.5329 -18.4720 -18.4419
     6.0490   8.0233   8.9821   9.4518  10.3201  10.5619  10.9086

          k = 0.1681 0.2912 0.2381 (  3331 PWs)   bands (ev):

   -39.6801 -39.6613 -18.7293 -18.6730 -18.5420 -18.5294 -18.4825 -18.4563
     6.4278   7.4743   9.2162   9.5543  10.1334  10.3550  11.0890

          k = 0.1681 0.2912-0.3174 (  3332 PWs)   bands (ev):

   -39.6707 -39.6707 -18.7048 -18.7048 -18.5236 -18.5236 -18.4779 -18.4779
     6.9182   6.9182   9.4679   9.4679  10.1438  10.1438  11.3210

          k = 0.1681 0.3883 0.0000 (  3342 PWs)   bands (ev):

   -39.6806 -39.6437 -18.6943 -18.6909 -18.6584 -18.5562 -18.4839 -18.4682
     6.5525   8.6589   8.7292   9.0192  10.3041  10.6161  10.7331

          k = 0.1681 0.3883 0.0794 (  3328 PWs)   bands (ev):

   -39.6792 -39.6451 -18.7260 -18.6813 -18.6326 -18.5617 -18.4887 -18.4615
     6.6159   8.5434   8.7892   9.0670  10.2695  10.6371  10.6802

          k = 0.1681 0.3883 0.1587 (  3337 PWs)   bands (ev):

   -39.6752 -39.6491 -18.7488 -18.6969 -18.5903 -18.5627 -18.4983 -18.4546
     6.8013   8.2593   8.9394   9.1813  10.1737  10.4440  10.8110

          k = 0.1681 0.3883 0.2381 (  3338 PWs)   bands (ev):

   -39.6692 -39.6551 -18.7549 -18.7221 -18.5678 -18.5464 -18.5006 -18.4597
     7.0936   7.8750   9.1505   9.3129  10.0422  10.1908  11.0484

          k = 0.1681 0.3883-0.3174 (  3332 PWs)   bands (ev):

   -39.6622 -39.6622 -18.7445 -18.7445 -18.5522 -18.5522 -18.4789 -18.4789
     7.4658   7.4658   9.3281   9.3281  10.0100  10.0100  11.3672

          k = 0.1681 0.4854 0.0000 (  3339 PWs)   bands (ev):

   -39.6681 -39.6437 -18.7383 -18.6757 -18.6489 -18.5910 -18.5003 -18.5001
     7.3825   8.5480   8.5565   8.8624  10.2232  10.4758  10.8821

          k = 0.1681 0.4854 0.0794 (  3334 PWs)   bands (ev):

   -39.6671 -39.6446 -18.7504 -18.6949 -18.6280 -18.5852 -18.5108 -18.4848
     7.4155   8.4499   8.6513   8.9343  10.1982  10.4103  10.8980

          k = 0.1681 0.4854 0.1587 (  3335 PWs)   bands (ev):

   -39.6645 -39.6473 -18.7705 -18.7236 -18.6123 -18.5573 -18.5203 -18.4693
     7.5133   8.2955   8.8218   9.1016  10.1120  10.2303  10.9823

          k = 0.1681 0.4854 0.2381 (  3335 PWs)   bands (ev):

   -39.6605 -39.6512 -18.7804 -18.7533 -18.5957 -18.5546 -18.5035 -18.4650
     7.6710   8.0940   9.0642   9.2806   9.9773   9.9930  11.1716

          k = 0.1681 0.4854-0.3174 (  3334 PWs)   bands (ev):

   -39.6559 -39.6559 -18.7743 -18.7743 -18.5747 -18.5747 -18.4771 -18.4771
     7.8738   7.8738   9.2904   9.2904   9.8767   9.8767  11.4643

          k = 0.1681 0.5824 0.0000 (  3320 PWs)   bands (ev):

   -39.6624 -39.6447 -18.7554 -18.6801 -18.6258 -18.6059 -18.5183 -18.5061
     7.8792   8.3398   8.5233   8.7682  10.2833  10.2921  11.0146

          k = 0.1681 0.5824 0.0794 (  3332 PWs)   bands (ev):

   -39.6618 -39.6454 -18.7649 -18.6959 -18.6311 -18.5802 -18.5242 -18.4950
     7.8634   8.3293   8.6267   8.7963  10.2478  10.2576  11.0251

          k = 0.1681 0.5824 0.1587 (  3334 PWs)   bands (ev):

   -39.6598 -39.6473 -18.7822 -18.7299 -18.6241 -18.5387 -18.5385 -18.4769
     7.8589   8.2679   8.8801   8.9134  10.1247  10.1422  11.0996

          k = 0.1681 0.5824 0.2381 (  3339 PWs)   bands (ev):

   -39.6570 -39.6502 -18.7914 -18.7632 -18.6063 -18.5592 -18.5010 -18.4682
     7.9086   8.1480   9.1271   9.1846   9.8998   9.9661  11.2806

          k = 0.1681 0.5824-0.3174 (  3336 PWs)   bands (ev):

   -39.6536 -39.6536 -18.7853 -18.7853 -18.5832 -18.5832 -18.4760 -18.4760
     8.0136   8.0136   9.3260   9.3260   9.7856   9.7856  11.5585

          k = 0.2522 0.4368-0.0000 (  3348 PWs)   bands (ev):

   -39.6681 -39.6437 -18.7133 -18.6797 -18.6493 -18.5899 -18.5232 -18.4997
     7.3503   8.6107   8.7529   8.7994  10.1420  10.4887  10.8481

          k = 0.2522 0.4368 0.0794 (  3335 PWs)   bands (ev):

   -39.6672 -39.6446 -18.7156 -18.7122 -18.6120 -18.6016 -18.5260 -18.4874
     7.3964   8.5493   8.7914   8.8800  10.1273  10.3804  10.8567

          k = 0.2522 0.4368 0.1587 (  3332 PWs)   bands (ev):

   -39.6645 -39.6472 -18.7441 -18.7261 -18.6142 -18.5745 -18.5259 -18.4693
     7.5293   8.4154   8.9056   9.0482  10.0624  10.1272  10.9099

          k = 0.2522 0.4368 0.2381 (  3340 PWs)   bands (ev):

   -39.6606 -39.6512 -18.7602 -18.7445 -18.6097 -18.5757 -18.5003 -18.4630
     7.7323   8.2181   9.0843   9.2344   9.8578   9.9237  11.0690

          k = 0.2522 0.4368-0.3174 (  3344 PWs)   bands (ev):

   -39.6559 -39.6559 -18.7591 -18.7591 -18.5935 -18.5935 -18.4739 -18.4739
     7.9759   7.9759   9.2652   9.2652   9.7752   9.7752  11.3616

          k = 0.2522 0.5339 0.0000 (  3334 PWs)   bands (ev):

   -39.6586 -39.6460 -18.7302 -18.6672 -18.6280 -18.6090 -18.5480 -18.5322
     8.0395   8.5756   8.6035   8.6977  10.1189  10.2581  11.0789

          k = 0.2522 0.5339 0.0794 (  3339 PWs)   bands (ev):

   -39.6581 -39.6465 -18.7337 -18.6890 -18.6458 -18.5796 -18.5532 -18.5131
     8.0652   8.5416   8.6504   8.7850  10.0797  10.1597  11.0815

          k = 0.2522 0.5339 0.1587 (  3337 PWs)   bands (ev):

   -39.6567 -39.6478 -18.7478 -18.7194 -18.6567 -18.5772 -18.5265 -18.4855
     8.1372   8.4980   8.7840   8.9760   9.9070   9.9626  11.1140

          k = 0.2522 0.5339 0.2381 (  3342 PWs)   bands (ev):

   -39.6547 -39.6499 -18.7619 -18.7465 -18.6452 -18.5982 -18.4911 -18.4691
     8.2399   8.4385   9.0006   9.2250   9.5969   9.7577  11.2278

          k = 0.2522 0.5339-0.3174 (  3336 PWs)   bands (ev):

   -39.6523 -39.6523 -18.7622 -18.7622 -18.6229 -18.6229 -18.4707 -18.4707
     8.3491   8.3491   9.2800   9.2800   9.5003   9.5003  11.4634

          k = 0.3363 0.5824-0.0000 (  3360 PWs)   bands (ev):

   -39.6510 -39.6510 -18.7201 -18.6513 -18.6513 -18.5759 -18.5692 -18.5692
     8.4832   8.4832   8.5824   8.6360  10.1206  10.1206  11.1771

          k = 0.3363 0.5824 0.0794 (  3339 PWs)   bands (ev):

   -39.6510 -39.6510 -18.7147 -18.6759 -18.6759 -18.5814 -18.5443 -18.5443
     8.5295   8.5295   8.6016   8.6574  10.0417  10.0417  11.1744

          k = 0.3363 0.5824 0.1587 (  3330 PWs)   bands (ev):

   -39.6509 -39.6509 -18.7132 -18.7132 -18.6992 -18.5972 -18.5061 -18.5061
     8.6519   8.6610   8.6610   8.7073   9.8383   9.8383  11.1884

          k = 0.3363 0.5824 0.2381 (  3327 PWs)   bands (ev):

   -39.6509 -39.6509 -18.7401 -18.7401 -18.6760 -18.6208 -18.4784 -18.4784
     8.7128   8.7508   8.8491   8.8491   9.5863   9.5863  11.2736

          k = 0.3363 0.5824-0.3174 (  3336 PWs)   bands (ev):

   -39.6509 -39.6509 -18.7497 -18.7497 -18.6485 -18.6485 -18.4685 -18.4685
     8.7540   8.7540   8.9770   8.9770   9.4339   9.4339  11.4828

     the Fermi energy is     9.1469 ev

!    total energy              =    -306.87591539 Ry
     total all-electron energy =     -3050.016686 Ry
     estimated scf accuracy    <          1.0E-08 Ry
     smearing contrib. (-TS)   =      -0.00101274 Ry
     internal energy E=F+TS    =    -306.87490264 Ry

     The total energy is F=E-TS. E is the sum of the following terms:
     one-electron contribution =     -72.52468397 Ry
     hartree contribution      =      41.67867649 Ry
     xc contribution           =     -34.56548056 Ry
     ewald contribution        =    -127.70634244 Ry
     one-center paw contrib.   =    -113.75707217 Ry

     convergence has been achieved in  26 iterations

     Forces acting on atoms (cartesian axes, Ry/au):

     atom    1 type  1   force =     0.00000000   -0.00000000   -0.00000000
     atom    2 type  1   force =     0.00000000    0.00000000    0.00000000
     The non-local contrib.  to forces
     atom    1 type  1   force =     0.00000000   -0.00000000   -0.00000000
     atom    2 type  1   force =    -0.00000000    0.00000000    0.00000000
     The ionic contribution  to forces
     atom    1 type  1   force =     0.00000000   -0.00000000   -0.00000000
     atom    2 type  1   force =    -0.00000000    0.00000000    0.00000000
     The local contribution  to forces
     atom    1 type  1   force =    -0.00000000    0.00000000    0.00000000
     atom    2 type  1   force =    -0.00000000    0.00000000    0.00000000
     The core correction contribution to forces
     atom    1 type  1   force =    -0.00000000   -0.00000000    0.00000000
     atom    2 type  1   force =     0.00000000   -0.00000000   -0.00000000
     The Hubbard contrib.    to forces
     atom    1 type  1   force =     0.00000000    0.00000000    0.00000000
     atom    2 type  1   force =     0.00000000    0.00000000    0.00000000
     The SCF correction term to forces
     atom    1 type  1   force =     0.00000000    0.00000000    0.00000000
     atom    2 type  1   force =    -0.00000000    0.00000000   -0.00000000

     Total force =     0.000000     Total SCF correction =     0.000000


     Computing stress (Cartesian axis) and pressure

          total   stress  (Ry/bohr**3)                   (kbar)     P=      -44.03
  -0.00026011   0.00000000   0.00000000          -38.26        0.00        0.00
   0.00000000  -0.00026011  -0.00000000            0.00      -38.26       -0.00
   0.00000000  -0.00000000  -0.00037777            0.00       -0.00      -55.57

     Energy error            =      3.4E-03 Ry
     Gradient error          =      1.6E-27 Ry/Bohr
     Cell gradient error     =      5.6E+01 kbar

     number of scf cycles    =   2
     number of bfgs steps    =   1

     enthalpy           old  =    -306.8724772911 Ry
     enthalpy           new  =    -306.8759153856 Ry

     CASE: enthalpy          _new < enthalpy          _old

     new trust radius        =       0.0645610017 bohr
     new conv_thr            =            1.0E-10 Ry

     new unit-cell volume =    314.10658 a.u.^3 (    46.54579 Ang^3 )
     density =      3.18196 g/cm^3

CELL_PARAMETERS (alat=  6.25310370)
   0.979170544   0.000000000   0.000000000
  -0.489585272   0.847986566  -0.000000000
   0.000000000  -0.000000000   1.547187052

ATOMIC_POSITIONS (crystal)
Sc            0.0000000000        0.0000000000        0.0000000000
Sc            0.6666666667        0.3333333333        0.5000000000



     Writing config-only to output data dir sc_vcrelax.out/scandium.save/
     NEW-OLD atomic charge density approx. for the potential

     Check: negative core charge=   -0.000011
     extrapolated charge   21.04376, renormalised to   22.00000

     total cpu time spent up to now is      406.6 secs

     Self-consistent Calculation

     iteration #  1     ecut=    70.00 Ry     beta= 0.70
     Davidson diagonalization with overlap
     c_bands:  1 eigenvalues not converged
     c_bands:  2 eigenvalues not converged
     c_bands:  3 eigenvalues not converged
     c_bands:  3 eigenvalues not converged
     c_bands:  1 eigenvalues not converged
     c_bands:  3 eigenvalues not converged
     c_bands:  4 eigenvalues not converged
     c_bands:  4 eigenvalues not converged
     c_bands:  3 eigenvalues not converged
     c_bands:  4 eigenvalues not converged
     c_bands:  4 eigenvalues not converged
     c_bands:  2 eigenvalues not converged
     c_bands:  4 eigenvalues not converged
     c_bands:  2 eigenvalues not converged
     c_bands:  5 eigenvalues not converged
     c_bands:  2 eigenvalues not converged
     c_bands:  4 eigenvalues not converged
     c_bands:  4 eigenvalues not converged
     c_bands:  4 eigenvalues not converged
     c_bands:  2 eigenvalues not converged
     c_bands:  5 eigenvalues not converged
     c_bands:  2 eigenvalues not converged
     c_bands:  5 eigenvalues not converged
     c_bands:  5 eigenvalues not converged
     c_bands:  1 eigenvalues not converged
     c_bands:  5 eigenvalues not converged
     c_bands:  4 eigenvalues not converged
     c_bands:  4 eigenvalues not converged
     c_bands:  3 eigenvalues not converged
     c_bands:  2 eigenvalues not converged
     c_bands:  1 eigenvalues not converged
     c_bands:  3 eigenvalues not converged
     c_bands:  2 eigenvalues not converged
     c_bands:  3 eigenvalues not converged
     c_bands:  2 eigenvalues not converged
     c_bands:  3 eigenvalues not converged
     c_bands:  3 eigenvalues not converged
     c_bands:  2 eigenvalues not converged
     c_bands:  3 eigenvalues not converged
     c_bands:  5 eigenvalues not converged
     c_bands:  3 eigenvalues not converged
     c_bands:  3 eigenvalues not converged
     c_bands:  3 eigenvalues not converged
     c_bands:  3 eigenvalues not converged
     c_bands:  3 eigenvalues not converged
     c_bands:  3 eigenvalues not converged
     c_bands:  4 eigenvalues not converged
     c_bands:  5 eigenvalues not converged
     c_bands:  1 eigenvalues not converged
     c_bands:  5 eigenvalues not converged
     c_bands:  3 eigenvalues not converged
     c_bands:  4 eigenvalues not converged
     c_bands:  2 eigenvalues not converged
     c_bands:  5 eigenvalues not converged
     c_bands:  5 eigenvalues not converged
     c_bands:  3 eigenvalues not converged
     c_bands:  2 eigenvalues not converged
     c_bands:  5 eigenvalues not converged
     c_bands:  3 eigenvalues not converged
     c_bands:  3 eigenvalues not converged
     c_bands:  5 eigenvalues not converged
     c_bands:  3 eigenvalues not converged
     c_bands:  4 eigenvalues not converged
     c_bands:  4 eigenvalues not converged
     ethr =  1.00E-06,  avg # of iterations = 22.5

     total cpu time spent up to now is      413.9 secs

     total energy              =    -306.61731450 Ry
     estimated scf accuracy    <       0.19068375 Ry

     iteration #  2     ecut=    70.00 Ry     beta= 0.70
     Davidson diagonalization with overlap
     ethr =  8.67E-04,  avg # of iterations =  7.1

     total cpu time spent up to now is      416.3 secs

     total energy              =    -306.88645977 Ry
     estimated scf accuracy    <       0.30320870 Ry

     iteration #  3     ecut=    70.00 Ry     beta= 0.70
     Davidson diagonalization with overlap
     ethr =  8.67E-04,  avg # of iterations =  1.2

     total cpu time spent up to now is      417.5 secs

     total energy              =    -306.87515146 Ry
     estimated scf accuracy    <       0.09057979 Ry

     iteration #  4     ecut=    70.00 Ry     beta= 0.70
     Davidson diagonalization with overlap
     ethr =  4.12E-04,  avg # of iterations =  2.4

     total cpu time spent up to now is      418.9 secs

     total energy              =    -306.87321417 Ry
     estimated scf accuracy    <       0.04006487 Ry

     iteration #  5     ecut=    70.00 Ry     beta= 0.70
     Davidson diagonalization with overlap
     ethr =  1.82E-04,  avg # of iterations =  2.6

     total cpu time spent up to now is      420.2 secs

     total energy              =    -306.87639660 Ry
     estimated scf accuracy    <       0.01936433 Ry

     iteration #  6     ecut=    70.00 Ry     beta= 0.70
     Davidson diagonalization with overlap
     ethr =  8.80E-05,  avg # of iterations =  3.9

     total cpu time spent up to now is      421.7 secs

     total energy              =    -306.88242546 Ry
     estimated scf accuracy    <       0.01299066 Ry

     iteration #  7     ecut=    70.00 Ry     beta= 0.70
     Davidson diagonalization with overlap
[...]

          k =-0.0000 0.3950 0.1659 (  3006 PWs)   bands (ev):

   -38.5456 -38.4994 -17.7064 -17.5863 -17.4786 -17.4032 -17.2997 -17.2922
     7.3391   8.9594   9.7271  10.2863  11.3483  11.7624  11.8511

          k =-0.0000 0.3950 0.2488 (  3002 PWs)   bands (ev):

   -38.5350 -38.5100 -17.7060 -17.6374 -17.4095 -17.3796 -17.3236 -17.3102
     7.6620   8.5319   9.9916  10.3632  11.2403  11.5462  12.1243

          k =-0.0000 0.3950-0.3318 (  2984 PWs)   bands (ev):

   -38.5225 -38.5225 -17.6811 -17.6811 -17.3517 -17.3517 -17.3504 -17.3504
     8.0751   8.0751  10.2575  10.2575  11.3137  11.3137  12.4765

          k =-0.0000 0.4937 0.0000 (  3018 PWs)   bands (ev):

   -38.5366 -38.4903 -17.6783 -17.5890 -17.5695 -17.4444 -17.3376 -17.2882
     7.9187   9.1067   9.3495   9.9060  11.4600  11.5511  11.9918

          k =-0.0000 0.4937 0.0829 (  3015 PWs)   bands (ev):

   -38.5348 -38.4920 -17.7074 -17.5970 -17.5408 -17.4386 -17.3284 -17.2943
     7.9399   9.0499   9.4402   9.9328  11.5343  11.5582  11.9331

          k =-0.0000 0.4937 0.1659 (  3009 PWs)   bands (ev):

   -38.5298 -38.4970 -17.7408 -17.6460 -17.4694 -17.4218 -17.3160 -17.3114
     8.0145   8.8849   9.6554  10.0514  11.5354  11.7532  11.7833

          k =-0.0000 0.4937 0.2488 (  2989 PWs)   bands (ev):

   -38.5223 -38.5045 -17.7515 -17.6979 -17.4010 -17.3967 -17.3369 -17.3202
     8.1597   8.6368   9.9341  10.2044  11.4429  11.6103  12.1047

          k =-0.0000 0.4937-0.3318 (  2998 PWs)   bands (ev):

   -38.5134 -38.5134 -17.7361 -17.7361 -17.3669 -17.3669 -17.3489 -17.3489
     8.3759   8.3759  10.1750  10.1750  11.4538  11.4538  12.5667

          k = 0.0000-0.5924-0.0000 (  3006 PWs)   bands (ev):

   -38.5286 -38.4916 -17.7032 -17.5914 -17.5601 -17.4517 -17.3598 -17.2920
     8.4116   8.8855   9.2670   9.8051  11.4042  11.5020  12.1107

          k = 0.0000-0.5924 0.0829 (  3018 PWs)   bands (ev):

   -38.5272 -38.4930 -17.7260 -17.6153 -17.5250 -17.4457 -17.3473 -17.2982
     8.3619   8.8783   9.4248   9.7799  11.4826  11.5720  12.0181

          k = 0.0000-0.5924 0.1659 (  2994 PWs)   bands (ev):

   -38.5232 -38.4970 -17.7576 -17.6672 -17.4586 -17.4286 -17.3282 -17.3157
     8.3080   8.8063   9.7725   9.8054  11.6931  11.7147  11.7860

          k = 0.0000-0.5924 0.2488 (  2992 PWs)   bands (ev):

   -38.5171 -38.5030 -17.7700 -17.7197 -17.4029 -17.3946 -17.3418 -17.3253
     8.3370   8.6402   9.9717  10.0989  11.5606  11.6963  12.0887

          k = 0.0000-0.5924-0.3318 (  2988 PWs)   bands (ev):

   -38.5101 -38.5101 -17.7567 -17.7567 -17.3725 -17.3725 -17.3477 -17.3477
     8.4589   8.4589  10.1564  10.1564  11.5608  11.5609  12.5843

          k = 0.0855 0.1481 0.0000 (  2982 PWs)   bands (ev):

   -38.6016 -38.4983 -17.7831 -17.4002 -17.3696 -17.3049 -17.2526 -17.2177
     5.3133   8.6847  10.5504  11.0681  11.9447  12.0948  12.1129

          k = 0.0855 0.1481 0.0829 (  2982 PWs)   bands (ev):

   -38.5977 -38.5022 -17.7650 -17.3941 -17.3673 -17.3188 -17.2569 -17.2277
     5.4236   8.5847  10.4462  11.0798  11.9228  11.9517  11.9842

          k = 0.0855 0.1481 0.1659 (  2977 PWs)   bands (ev):

   -38.5866 -38.5135 -17.7134 -17.3812 -17.3767 -17.3411 -17.2688 -17.2523
     5.7463   8.2203  10.3593  11.1190  11.6520  11.7954  11.9222

          k = 0.0855 0.1481 0.2488 (  2987 PWs)   bands (ev):

   -38.5699 -38.5304 -17.6356 -17.4518 -17.3506 -17.3298 -17.2865 -17.2832
     6.2550   7.6037  10.4952  11.1007  11.4056  11.6956  11.8114

          k = 0.0855 0.1481-0.3318 (  2994 PWs)   bands (ev):

   -38.5502 -38.5502 -17.5433 -17.5433 -17.3219 -17.3219 -17.3043 -17.3043
     6.9018   6.9018  10.7963  10.7963  11.5039  11.5040  11.8675

          k = 0.0855 0.2468 0.0000 (  2993 PWs)   bands (ev):

   -38.5846 -38.4940 -17.7369 -17.4723 -17.4236 -17.3567 -17.2681 -17.2423
     5.9140   9.0797  10.1343  10.5950  11.7244  11.7996  12.1372

          k = 0.0855 0.2468 0.0829 (  2989 PWs)   bands (ev):

   -38.5812 -38.4975 -17.7265 -17.4627 -17.4276 -17.3652 -17.2732 -17.2457
     6.0147   8.9991  10.0456  10.6256  11.6908  11.8108  12.0310

          k = 0.0855 0.2468 0.1659 (  2987 PWs)   bands (ev):

   -38.5714 -38.5074 -17.6958 -17.4653 -17.4254 -17.3693 -17.2872 -17.2602
     6.3096   8.6424  10.0272  10.7086  11.4895  11.7901  11.9493

          k = 0.0855 0.2468 0.2488 (  2994 PWs)   bands (ev):

   -38.5568 -38.5221 -17.6474 -17.5206 -17.3859 -17.3561 -17.3071 -17.2884
     6.7761   8.0362  10.2332  10.7604  11.2728  11.5824  12.0165

          k = 0.0855 0.2468-0.3318 (  2996 PWs)   bands (ev):

   -38.5395 -38.5395 -17.5862 -17.5862 -17.3487 -17.3487 -17.3184 -17.3184
     7.3740   7.3740  10.5463  10.5464  11.3463  11.3463  12.1448

          k = 0.0855 0.3456 0.0000 (  2997 PWs)   bands (ev):

   -38.5635 -38.4905 -17.6760 -17.5630 -17.4884 -17.4056 -17.2847 -17.2782
     6.7221   9.3674   9.7467  10.1900  11.5463  11.6552  11.8972

          k = 0.0855 0.3456 0.0829 (  2998 PWs)   bands (ev):

   -38.5607 -38.4933 -17.6850 -17.5435 -17.4942 -17.4075 -17.2922 -17.2739
     6.8050   9.3171   9.6981  10.2365  11.4607  11.7333  11.8591

          k = 0.0855 0.3456 0.1659 (  2993 PWs)   bands (ev):

   -38.5528 -38.5012 -17.6919 -17.5536 -17.4664 -17.4005 -17.3086 -17.2757
     7.0475   8.9876   9.7992  10.3456  11.3089  11.7080  11.8959

          k = 0.0855 0.3456 0.2488 (  3000 PWs)   bands (ev):

   -38.5410 -38.5131 -17.6803 -17.6017 -17.4114 -17.3791 -17.3306 -17.2944
     7.4309   8.4691  10.0556  10.4394  11.1643  11.4644  12.1146

          k = 0.0855 0.3456-0.3318 (  3000 PWs)   bands (ev):

   -38.5271 -38.5271 -17.6483 -17.6483 -17.3730 -17.3730 -17.3276 -17.3276
     7.9221   7.9221  10.3319  10.3319  11.2196  11.2196  12.3887

          k = 0.0855 0.4443 0.0000 (  3004 PWs)   bands (ev):

   -38.5429 -38.4897 -17.6435 -17.6108 -17.5464 -17.4422 -17.3217 -17.2989
     7.6069   9.2986   9.4596   9.9475  11.3940  11.6629  11.8673

          k = 0.0855 0.4443 0.0829 (  3010 PWs)   bands (ev):

   -38.5409 -38.4918 -17.6832 -17.5852 -17.5375 -17.4388 -17.3189 -17.2995
     7.6568   9.2371   9.5002  10.0080  11.3840  11.6349  11.8731

          k = 0.0855 0.4443 0.1659 (  3005 PWs)   bands (ev):

   -38.5351 -38.4975 -17.7166 -17.6215 -17.4785 -17.4206 -17.3302 -17.2949
     7.8043   9.0141   9.6820  10.1512  11.2995  11.5900  11.9213

          k = 0.0855 0.4443 0.2488 (  2992 PWs)   bands (ev):

   -38.5265 -38.5061 -17.7253 -17.6702 -17.4284 -17.3847 -17.3510 -17.3019
     8.0416   8.6932   9.9612  10.2803  11.1945  11.3990  12.1647

          k = 0.0855 0.4443-0.3318 (  2994 PWs)   bands (ev):

   -38.5163 -38.5163 -17.7083 -17.7083 -17.3930 -17.3930 -17.3293 -17.3293
     8.3498   8.3498  10.2218  10.2218  11.2122  11.2122  12.5358

          k = 0.0855 0.5431 0.0000 (  3006 PWs)   bands (ev):

   -38.5287 -38.4915 -17.6900 -17.5804 -17.5606 -17.4618 -17.3593 -17.3072
     8.3478   9.0508   9.3083   9.7879  11.3486  11.4974  12.0979

          k = 0.0855 0.5431 0.0829 (  3010 PWs)   bands (ev):

   -38.5273 -38.4929 -17.7127 -17.6058 -17.5280 -17.4525 -17.3495 -17.3102
     8.3320   9.0198   9.4380   9.7981  11.3837  11.5175  12.0505

          k = 0.0855 0.5431 0.1659 (  3007 PWs)   bands (ev):

   -38.5232 -38.4970 -17.7442 -17.6570 -17.4787 -17.4199 -17.3483 -17.3090
     8.3295   8.9188   9.6984   9.9232  11.3954  11.5312  12.0269

          k = 0.0855 0.5431 0.2488 (  2992 PWs)   bands (ev):

   -38.5172 -38.5030 -17.7569 -17.7085 -17.4397 -17.3770 -17.3650 -17.3085
     8.3957   8.7363   9.9696  10.1671  11.2703  11.4428  12.2460

          k = 0.0855 0.5431-0.3318 (  2998 PWs)   bands (ev):

   -38.5101 -38.5101 -17.7445 -17.7445 -17.4047 -17.4047 -17.3284 -17.3284
     8.5408   8.5408  10.1999  10.1999  11.2750  11.2750  12.6452

          k = 0.1710 0.2962 0.0000 (  2996 PWs)   bands (ev):

   -38.5664 -38.4909 -17.6849 -17.5197 -17.5107 -17.3842 -17.2981 -17.2726
     6.6056   9.4227   9.8235  10.1790  11.4793  11.6298  12.0003

          k = 0.1710 0.2962 0.0829 (  2993 PWs)   bands (ev):

   -38.5636 -38.4938 -17.6875 -17.5165 -17.4994 -17.3952 -17.3032 -17.2688
     6.6930   9.3764   9.7526  10.2189  11.4455  11.6844  11.9219

          k = 0.1710 0.2962 0.1659 (  2989 PWs)   bands (ev):

   -38.5554 -38.5020 -17.6856 -17.5414 -17.4514 -17.4061 -17.3172 -17.2697
     6.9490   9.0193   9.8371  10.3301  11.3216  11.6681  11.8843

          k = 0.1710 0.2962 0.2488 (  3004 PWs)   bands (ev):

   -38.5432 -38.5143 -17.6679 -17.5859 -17.3993 -17.3985 -17.3331 -17.2877
     7.3542   8.4588  10.0912  10.4515  11.1427  11.4069  12.0858

          k = 0.1710 0.2962-0.3318 (  3000 PWs)   bands (ev):

   -38.5288 -38.5288 -17.6326 -17.6326 -17.3834 -17.3834 -17.3203 -17.3203
     7.8750   7.8750  10.3687  10.3687  11.1606  11.1606  12.3348

          k = 0.1710 0.3950 0.0000 (  2999 PWs)   bands (ev):

   -38.5463 -38.4896 -17.6225 -17.5968 -17.5508 -17.4293 -17.3262 -17.3133
     7.4487   9.5519   9.5665   9.8699  11.2700  11.7544  11.7664

          k = 0.1710 0.3950 0.0829 (  3000 PWs)   bands (ev):

   -38.5442 -38.4917 -17.6584 -17.5859 -17.5203 -17.4401 -17.3335 -17.3005
     7.5144   9.4587   9.6169   9.9290  11.2521  11.6730  11.7856

          k = 0.1710 0.3950 0.1659 (  3007 PWs)   bands (ev):

   -38.5380 -38.4979 -17.6892 -17.6079 -17.4678 -17.4387 -17.3481 -17.2866
     7.7062   9.1864   9.7910  10.0665  11.1749  11.4754  11.8707

          k = 0.1710 0.3950 0.2488 (  3003 PWs)   bands (ev):

   -38.5288 -38.5071 -17.6967 -17.6465 -17.4451 -17.4077 -17.3510 -17.2909
     8.0076   8.8047  10.0409  10.2269  11.0400  11.2020  12.0896

          k = 0.1710 0.3950-0.3318 (  2998 PWs)   bands (ev):

   -38.5180 -38.5180 -17.6806 -17.6806 -17.4212 -17.4212 -17.3170 -17.3170
     8.3893   8.3893  10.2520  10.2520  10.9993  10.9993  12.4233

          k = 0.1710 0.4937 0.0000 (  3009 PWs)   bands (ev):

   -38.5289 -38.4914 -17.6556 -17.5658 -17.5617 -17.4755 -17.3582 -17.3448
     8.2774   9.3608   9.4002   9.7353  11.2001  11.5191  12.0486

          k = 0.1710 0.4937 0.0829 (  3005 PWs)   bands (ev):

   -38.5274 -38.4928 -17.6770 -17.5997 -17.5231 -17.4687 -17.3617 -17.3308
     8.3053   9.2986   9.4773   9.8156  11.1932  11.4422  12.0443

          k = 0.1710 0.4937 0.1659 (  3007 PWs)   bands (ev):

   -38.5233 -38.4969 -17.7094 -17.6406 -17.5050 -17.4239 -17.3745 -17.3061
     8.3919   9.1581   9.6745  10.0151  11.1294  11.2478  12.0829

          k = 0.1710 0.4937 0.2488 (  3002 PWs)   bands (ev):

   -38.5172 -38.5029 -17.7248 -17.6849 -17.4812 -17.4195 -17.3504 -17.2973
     8.5400   8.9595   9.9668  10.2428  10.9567  11.0132  12.2500

          k = 0.1710 0.4937-0.3318 (  2996 PWs)   bands (ev):

   -38.5101 -38.5101 -17.7160 -17.7160 -17.4499 -17.4499 -17.3129 -17.3129
     8.7391   8.7391  10.2540  10.2540  10.8568  10.8568  12.5573

          k = 0.1710 0.5924 0.0000 (  3010 PWs)   bands (ev):

   -38.5208 -38.4937 -17.6768 -17.5672 -17.5305 -17.4970 -17.3834 -17.3514
     8.7505   9.1742   9.3427   9.6501  11.2244  11.3805  12.1970

          k = 0.1710 0.5924 0.0829 (  3002 PWs)   bands (ev):

   -38.5198 -38.4947 -17.6933 -17.5938 -17.5349 -17.4604 -17.3809 -17.3422
     8.7159   9.1761   9.4787   9.6697  11.2056  11.3405  12.1842

          k = 0.1710 0.5924 0.1659 (  2996 PWs)   bands (ev):

   -38.5168 -38.4976 -17.7218 -17.6471 -17.5221 -17.4002 -17.3964 -17.3161
     8.6897   9.1280   9.7862   9.7934  11.0983  11.2220  12.2116

          k = 0.1710 0.5924 0.2488 (  3001 PWs)   bands (ev):

   -38.5124 -38.5020 -17.7370 -17.6969 -17.4948 -17.4256 -17.3462 -17.3014
     8.7343   8.9992  10.0350  10.1631  10.8653  11.0176  12.3735

          k = 0.1710 0.5924-0.3318 (  2994 PWs)   bands (ev):

   -38.5072 -38.5072 -17.7289 -17.7289 -17.4605 -17.4605 -17.3112 -17.3112
     8.8486   8.8486  10.3045  10.3045  10.7703  10.7703  12.6701

          k = 0.2565 0.4443 0.0000 (  3004 PWs)   bands (ev):

   -38.5289 -38.4913 -17.6265 -17.5764 -17.5622 -17.4680 -17.3720 -17.3576
     8.2549   9.4518   9.5893   9.6349  11.1178  11.5337  12.0079

          k = 0.2565 0.4443 0.0829 (  2999 PWs)   bands (ev):

   -38.5275 -38.4927 -17.6335 -17.6292 -17.4976 -17.4888 -17.3770 -17.3360
     8.3010   9.3901   9.6336   9.7364  11.1113  11.4093  12.0061

          k = 0.2565 0.4443 0.1659 (  3011 PWs)   bands (ev):

   -38.5234 -38.4968 -17.6795 -17.6453 -17.5086 -17.4408 -17.3809 -17.3058
     8.4330   9.2710   9.7671   9.9442  11.0598  11.1239  12.0283

          k = 0.2565 0.4443 0.2488 (  3007 PWs)   bands (ev):

   -38.5173 -38.5029 -17.7017 -17.6752 -17.4992 -17.4443 -17.3449 -17.2941
     8.6324   9.0945   9.9813  10.1778  10.8160  10.9154  12.1613

          k = 0.2565 0.4443-0.3318 (  3000 PWs)   bands (ev):

   -38.5101 -38.5101 -17.6987 -17.6987 -17.4728 -17.4728 -17.3079 -17.3079
     8.8675   8.8675  10.2114  10.2114  10.7313  10.7313  12.4597

          k = 0.2565 0.5431 0.0000 (  2998 PWs)   bands (ev):

   -38.5153 -38.4959 -17.6493 -17.5588 -17.5151 -17.5078 -17.4028 -17.4003
     8.9253   9.3992   9.4230   9.5508  11.1092  11.3091  12.2620

          k = 0.2565 0.5431 0.0829 (  3007 PWs)   bands (ev):

   -38.5145 -38.4966 -17.6547 -17.5970 -17.5452 -17.4563 -17.4105 -17.3696
     8.9460   9.3772   9.4817   9.6404  11.0757  11.2004  12.2521

          k = 0.2565 0.5431 0.1659 (  2998 PWs)   bands (ev):

   -38.5124 -38.4987 -17.6794 -17.6401 -17.5620 -17.4411 -17.3817 -17.3271
     9.0076   9.3482   9.6430   9.8581  10.9263  10.9630  12.2567

          k = 0.2565 0.5431 0.2488 (  2993 PWs)   bands (ev):

   -38.5092 -38.5018 -17.7023 -17.6802 -17.5423 -17.4715 -17.3314 -17.3017
     9.1025   9.2958   9.9011  10.1486  10.5836  10.7510  12.3504

          k = 0.2565 0.5431-0.3318 (  2996 PWs)   bands (ev):

   -38.5055 -38.5055 -17.7034 -17.7034 -17.5081 -17.5081 -17.3028 -17.3028
     9.2085   9.2085  10.2255  10.2255  10.4660  10.4660  12.5924

          k = 0.3420 0.5924 0.0000 (  3006 PWs)   bands (ev):

   -38.5039 -38.5039 -17.6411 -17.5409 -17.5409 -17.4536 -17.4536 -17.4308
     9.3447   9.3447   9.4087   9.4473  11.1480  11.1480  12.3720

          k = 0.3420 0.5924 0.0829 (  2994 PWs)   bands (ev):

   -38.5039 -38.5039 -17.6332 -17.5820 -17.5820 -17.4389 -17.4118 -17.4118
     9.3959   9.3959   9.4396   9.4686  11.0645  11.0645  12.3600

          k = 0.3420 0.5924 0.1659 (  3000 PWs)   bands (ev):

   -38.5039 -38.5039 -17.6381 -17.6381 -17.6108 -17.4621 -17.3544 -17.3544
     9.5149   9.5235   9.5404   9.5404  10.8494  10.8494  12.3510

          k = 0.3420 0.5924 0.2488 (  2982 PWs)   bands (ev):

   -38.5038 -38.5038 -17.6772 -17.6772 -17.5771 -17.4966 -17.3138 -17.3138
     9.5861   9.5905   9.7427   9.7427  10.5856  10.5856  12.4162

          k = 0.3420 0.5924-0.3318 (  2982 PWs)   bands (ev):

   -38.5038 -38.5038 -17.6910 -17.6910 -17.5370 -17.5370 -17.2994 -17.2994
     9.6181   9.6181   9.8736   9.8736  10.4314  10.4314  12.6281

     the Fermi energy is    10.0651 ev

!    total energy              =    -306.87958574 Ry
     total all-electron energy =     -3050.020357 Ry
     estimated scf accuracy    <          6.7E-11 Ry
     smearing contrib. (-TS)   =      -0.00078192 Ry
     internal energy E=F+TS    =    -306.87880382 Ry

     The total energy is F=E-TS. E is the sum of the following terms:
     one-electron contribution =     -67.49314724 Ry
     hartree contribution      =      40.09104770 Ry
     xc contribution           =     -34.67319281 Ry
     ewald contribution        =    -131.04698897 Ry
     one-center paw contrib.   =    -113.75652249 Ry

     convergence has been achieved in  21 iterations

     Forces acting on atoms (cartesian axes, Ry/au):

     atom    1 type  1   force =    -0.00000000   -0.00000000   -0.00000000
     atom    2 type  1   force =    -0.00000000    0.00000000   -0.00000000
     The non-local contrib.  to forces
     atom    1 type  1   force =     0.00000000   -0.00000000    0.00000000
     atom    2 type  1   force =    -0.00000000    0.00000000   -0.00000000
     The ionic contribution  to forces
     atom    1 type  1   force =     0.00000000   -0.00000000   -0.00000000
     atom    2 type  1   force =    -0.00000000    0.00000000    0.00000000
     The local contribution  to forces
     atom    1 type  1   force =    -0.00000000    0.00000000    0.00000000
     atom    2 type  1   force =    -0.00000000    0.00000000    0.00000000
     The core correction contribution to forces
     atom    1 type  1   force =     0.00000000   -0.00000000   -0.00000000
     atom    2 type  1   force =     0.00000000   -0.00000000   -0.00000000
     The Hubbard contrib.    to forces
     atom    1 type  1   force =     0.00000000    0.00000000    0.00000000
     atom    2 type  1   force =     0.00000000    0.00000000    0.00000000
     The SCF correction term to forces
     atom    1 type  1   force =     0.00000000   -0.00000000    0.00000000
     atom    2 type  1   force =    -0.00000000   -0.00000000   -0.00000000

     Total force =     0.000000     Total SCF correction =     0.000000


     Computing stress (Cartesian axis) and pressure

          total   stress  (Ry/bohr**3)                   (kbar)     P=       -2.16
  -0.00001349   0.00000000  -0.00000000           -1.98        0.00       -0.00
   0.00000000  -0.00001349  -0.00000000            0.00       -1.98       -0.00
  -0.00000000  -0.00000000  -0.00001716           -0.00       -0.00       -2.52


     Writing all to output data dir sc_vcrelax.out/scandium.save/

     init_run     :      4.42s CPU      4.76s WALL (       2 calls)
     electrons    :    417.26s CPU   2439.98s WALL (       9 calls)
     update_pot   :      1.58s CPU      1.98s WALL (       7 calls)
     forces       :      2.04s CPU      2.05s WALL (       9 calls)
     stress       :      7.62s CPU      7.64s WALL (       9 calls)

     Called by init_run:
     wfcinit      :      3.81s CPU      4.01s WALL (       2 calls)
     potinit      :      0.16s CPU      0.29s WALL (       2 calls)
     hinit0       :      0.40s CPU      0.41s WALL (       2 calls)

     Called by electrons:
     c_bands      :    371.20s CPU   2336.02s WALL (     203 calls)
     sum_band     :     36.17s CPU     37.50s WALL (     203 calls)
     v_of_rho     :      0.25s CPU      0.26s WALL (     210 calls)
     newd         :      2.30s CPU      2.31s WALL (     210 calls)
     PAW_pot      :      6.45s CPU      6.47s WALL (     217 calls)
     mix_rho      :      0.23s CPU      0.24s WALL (     203 calls)

     Called by c_bands:
     init_us_2    :      3.80s CPU      4.23s WALL (   41135 calls)
     init_us_2:cp :      3.68s CPU      4.14s WALL (   41135 calls)
     cegterg      :    361.78s CPU    374.88s WALL (   19471 calls)

     Called by *egterg:
     cdiaghg      :     41.99s CPU     43.28s WALL (  145403 calls)
     h_psi        :    245.81s CPU    255.92s WALL (  146606 calls)
     s_psi        :     13.65s CPU     14.12s WALL (  146606 calls)
     g_psi        :      1.30s CPU      1.33s WALL (  126945 calls)

     Called by h_psi:
     h_psi:calbec :     18.31s CPU     19.01s WALL (  146606 calls)
     vloc_psi     :    212.56s CPU    221.43s WALL (  146606 calls)
     add_vuspsi   :     13.65s CPU     14.15s WALL (  146606 calls)

     General routines
     calbec       :     23.42s CPU     24.36s WALL (  170831 calls)
     fft          :      0.43s CPU      0.44s WALL (    1323 calls)
     ffts         :      0.06s CPU      0.06s WALL (     413 calls)
     fftw         :    217.30s CPU    226.12s WALL ( 2643817 calls)
     interpolate  :      0.10s CPU      0.10s WALL (     210 calls)

     Parallel routines

     PWSCF        :   7m14.09s CPU  41m10.78s WALL


   This run was terminated on:  15:29:56  21Jul2023            

=------------------------------------------------------------------------------=
   JOB DONE.
=------------------------------------------------------------------------------=
