
     Program PWSCF v.7.2 starts on 19Jun2023 at 18:12: 2 

     This program is part of the open-source Quantum ESPRESSO suite
     for quantum simulation of materials; please cite
         "P. Giannozzi et al., J. Phys.:Condens. Matter 21 395502 (2009);
         "P. Giannozzi et al., J. Phys.:Condens. Matter 29 465901 (2017);
         "P. Giannozzi et al., J. Chem. Phys. 152 154105 (2020);
          URL http://www.quantum-espresso.org", 
     in publications or presentations arising from this work. More details at
     http://www.quantum-espresso.org/quote

     Parallel version (MPI), running on     4 processors

     MPI processes distributed on     1 nodes
     317532 MiB available memory on the printing compute node when the environment starts

     Waiting for input...
     Reading input from standard input

     Current dimensions of program PWSCF are:
     Max number of different atomic species (ntypx) = 10
     Max number of k-points (npk) = 120000
     Max angular momentum in pseudopotentials (lmaxx) =  4

     File sc_vcrelax.out/scandium.update deleted, as requested

     File sc_vcrelax.out/scandium.bfgs deleted, as requested
     file Sc.pz-spn-kjpaw_psl.1.0.0.UPF: wavefunction(s)  3S 3P 3D renormalized

     R & G space division:  proc/nbgrp/npool/nimage =       4
     Subspace diagonalization in iterative solution of the eigenvalue problem:
     a serial algorithm will be used


     Parallelization info
     --------------------
     sticks:   dense  smooth     PW     G-vecs:    dense   smooth      PW
     Min         294     294     86                13152    13152    2011
     Max         295     295     88                13155    13155    2014
     Sum        1177    1177    349                52615    52615    8051

     Using Slab Decomposition



     bravais-lattice index     =            4
     lattice parameter (alat)  =       6.2531  a.u.
     unit-cell volume          =     337.5249 (a.u.)^3
     number of atoms/cell      =            2
     number of atomic types    =            1
     number of electrons       =        22.00
     number of Kohn-Sham states=           15
     kinetic-energy cutoff     =     110.0000  Ry
     charge density cutoff     =     440.0000  Ry
     scf convergence threshold =      1.0E-08
     mixing beta               =       0.7000
     number of iterations used =            8  plain     mixing
     energy convergence thresh.=      1.0E-04
     force convergence thresh. =      1.0E-03
     press convergence thresh. =      5.0E-01
     Exchange-correlation= SLA  PZ   NOGX NOGC
                           (   1   1   0   0   0   0   0)
     nstep                     =           50


     celldm(1)=   6.253104  celldm(2)=   0.000000  celldm(3)=   1.594000
     celldm(4)=   0.000000  celldm(5)=   0.000000  celldm(6)=   0.000000

     crystal axes: (cart. coord. in units of alat)
               a(1) = (   1.000000   0.000000   0.000000 )  
               a(2) = (  -0.500000   0.866025   0.000000 )  
               a(3) = (   0.000000   0.000000   1.594000 )  

     reciprocal axes: (cart. coord. in units 2 pi/alat)
               b(1) = (  1.000000  0.577350 -0.000000 )  
               b(2) = (  0.000000  1.154701  0.000000 )  
               b(3) = (  0.000000 -0.000000  0.627353 )  


     PseudoPot. # 1 for Sc read from file:
     ../../../Sc.pz-spn-kjpaw_psl.1.0.0.UPF
     MD5 check sum: 1f9095df0bb42a6568b4e9f256ff075f
     Pseudo is Projector augmented-wave + core cor, Zval = 11.0
     Generated using 'atomic' code by A. Dal Corso  v.7.1
     Shape of augmentation charge: PSQ
     Using radial grid of 1173 points,  6 beta functions with: 
                l(1) =   0
                l(2) =   0
                l(3) =   1
                l(4) =   1
                l(5) =   2
                l(6) =   2
     Q(r) pseudized with 0 coefficients 


     atomic species   valence    mass     pseudopotential
        Sc            11.00    44.59600     Sc( 1.00)

     24 Sym. Ops., with inversion, found (12 have fractional translation)



   Cartesian axes

     site n.     atom                  positions (alat units)
         1           Sc  tau(   1) = (   0.0000000   0.0000000   0.0000000  )
         2           Sc  tau(   2) = (   0.5000000   0.2886751   0.7970000  )

     number of k points=    95  Marzari-Vanderbilt smearing, width (Ry)=  0.0200
                       cart. coord. in units 2pi/alat
        k(    1) = (   0.0000000   0.0000000   0.0000000), wk =   0.0017361
        k(    2) = (   0.0000000   0.0000000   0.0784191), wk =   0.0034722
        k(    3) = (   0.0000000   0.0000000   0.1568381), wk =   0.0034722
        k(    4) = (   0.0000000   0.0000000   0.2352572), wk =   0.0034722
        k(    5) = (   0.0000000   0.0000000  -0.3136763), wk =   0.0017361
        k(    6) = (   0.0000000   0.0962250   0.0000000), wk =   0.0104167
        k(    7) = (   0.0000000   0.0962250   0.0784191), wk =   0.0208333
        k(    8) = (   0.0000000   0.0962250   0.1568381), wk =   0.0208333
        k(    9) = (   0.0000000   0.0962250   0.2352572), wk =   0.0208333
        k(   10) = (   0.0000000   0.0962250  -0.3136763), wk =   0.0104167
        k(   11) = (   0.0000000   0.1924501   0.0000000), wk =   0.0104167
        k(   12) = (   0.0000000   0.1924501   0.0784191), wk =   0.0208333
        k(   13) = (   0.0000000   0.1924501   0.1568381), wk =   0.0208333
        k(   14) = (   0.0000000   0.1924501   0.2352572), wk =   0.0208333
        k(   15) = (   0.0000000   0.1924501  -0.3136763), wk =   0.0104167
        k(   16) = (   0.0000000   0.2886751   0.0000000), wk =   0.0104167
        k(   17) = (   0.0000000   0.2886751   0.0784191), wk =   0.0208333
        k(   18) = (   0.0000000   0.2886751   0.1568381), wk =   0.0208333
        k(   19) = (   0.0000000   0.2886751   0.2352572), wk =   0.0208333
        k(   20) = (   0.0000000   0.2886751  -0.3136763), wk =   0.0104167
        k(   21) = (   0.0000000   0.3849002   0.0000000), wk =   0.0104167
        k(   22) = (   0.0000000   0.3849002   0.0784191), wk =   0.0208333
        k(   23) = (   0.0000000   0.3849002   0.1568381), wk =   0.0208333
        k(   24) = (   0.0000000   0.3849002   0.2352572), wk =   0.0208333
        k(   25) = (   0.0000000   0.3849002  -0.3136763), wk =   0.0104167
        k(   26) = (   0.0000000   0.4811252   0.0000000), wk =   0.0104167
        k(   27) = (   0.0000000   0.4811252   0.0784191), wk =   0.0208333
        k(   28) = (   0.0000000   0.4811252   0.1568381), wk =   0.0208333
        k(   29) = (   0.0000000   0.4811252   0.2352572), wk =   0.0208333
        k(   30) = (   0.0000000   0.4811252  -0.3136763), wk =   0.0104167
        k(   31) = (   0.0000000  -0.5773503   0.0000000), wk =   0.0052083
        k(   32) = (   0.0000000  -0.5773503   0.0784191), wk =   0.0104167
        k(   33) = (   0.0000000  -0.5773503   0.1568381), wk =   0.0104167
        k(   34) = (   0.0000000  -0.5773503   0.2352572), wk =   0.0104167
        k(   35) = (   0.0000000  -0.5773503  -0.3136763), wk =   0.0052083
        k(   36) = (   0.0833333   0.1443376   0.0000000), wk =   0.0104167
        k(   37) = (   0.0833333   0.1443376   0.0784191), wk =   0.0208333
        k(   38) = (   0.0833333   0.1443376   0.1568381), wk =   0.0208333
        k(   39) = (   0.0833333   0.1443376   0.2352572), wk =   0.0208333
        k(   40) = (   0.0833333   0.1443376  -0.3136763), wk =   0.0104167
        k(   41) = (   0.0833333   0.2405626   0.0000000), wk =   0.0208333
        k(   42) = (   0.0833333   0.2405626   0.0784191), wk =   0.0416667
        k(   43) = (   0.0833333   0.2405626   0.1568381), wk =   0.0416667
        k(   44) = (   0.0833333   0.2405626   0.2352572), wk =   0.0416667
        k(   45) = (   0.0833333   0.2405626  -0.3136763), wk =   0.0208333
        k(   46) = (   0.0833333   0.3367877   0.0000000), wk =   0.0208333
        k(   47) = (   0.0833333   0.3367877   0.0784191), wk =   0.0416667
        k(   48) = (   0.0833333   0.3367877   0.1568381), wk =   0.0416667
        k(   49) = (   0.0833333   0.3367877   0.2352572), wk =   0.0416667
        k(   50) = (   0.0833333   0.3367877  -0.3136763), wk =   0.0208333
        k(   51) = (   0.0833333   0.4330127   0.0000000), wk =   0.0208333
        k(   52) = (   0.0833333   0.4330127   0.0784191), wk =   0.0416667
        k(   53) = (   0.0833333   0.4330127   0.1568381), wk =   0.0416667
        k(   54) = (   0.0833333   0.4330127   0.2352572), wk =   0.0416667
        k(   55) = (   0.0833333   0.4330127  -0.3136763), wk =   0.0208333
        k(   56) = (   0.0833333   0.5292377   0.0000000), wk =   0.0208333
        k(   57) = (   0.0833333   0.5292377   0.0784191), wk =   0.0416667
        k(   58) = (   0.0833333   0.5292377   0.1568381), wk =   0.0416667
        k(   59) = (   0.0833333   0.5292377   0.2352572), wk =   0.0416667
        k(   60) = (   0.0833333   0.5292377  -0.3136763), wk =   0.0208333
        k(   61) = (   0.1666667   0.2886751   0.0000000), wk =   0.0104167
        k(   62) = (   0.1666667   0.2886751   0.0784191), wk =   0.0208333
        k(   63) = (   0.1666667   0.2886751   0.1568381), wk =   0.0208333
        k(   64) = (   0.1666667   0.2886751   0.2352572), wk =   0.0208333
        k(   65) = (   0.1666667   0.2886751  -0.3136763), wk =   0.0104167
        k(   66) = (   0.1666667   0.3849002   0.0000000), wk =   0.0208333
        k(   67) = (   0.1666667   0.3849002   0.0784191), wk =   0.0416667
        k(   68) = (   0.1666667   0.3849002   0.1568381), wk =   0.0416667
        k(   69) = (   0.1666667   0.3849002   0.2352572), wk =   0.0416667
        k(   70) = (   0.1666667   0.3849002  -0.3136763), wk =   0.0208333
        k(   71) = (   0.1666667   0.4811252   0.0000000), wk =   0.0208333
        k(   72) = (   0.1666667   0.4811252   0.0784191), wk =   0.0416667
        k(   73) = (   0.1666667   0.4811252   0.1568381), wk =   0.0416667
        k(   74) = (   0.1666667   0.4811252   0.2352572), wk =   0.0416667
        k(   75) = (   0.1666667   0.4811252  -0.3136763), wk =   0.0208333
        k(   76) = (   0.1666667   0.5773503   0.0000000), wk =   0.0104167
        k(   77) = (   0.1666667   0.5773503   0.0784191), wk =   0.0208333
        k(   78) = (   0.1666667   0.5773503   0.1568381), wk =   0.0208333
        k(   79) = (   0.1666667   0.5773503   0.2352572), wk =   0.0208333
        k(   80) = (   0.1666667   0.5773503  -0.3136763), wk =   0.0104167
        k(   81) = (   0.2500000   0.4330127   0.0000000), wk =   0.0104167
        k(   82) = (   0.2500000   0.4330127   0.0784191), wk =   0.0208333
        k(   83) = (   0.2500000   0.4330127   0.1568381), wk =   0.0208333
        k(   84) = (   0.2500000   0.4330127   0.2352572), wk =   0.0208333
        k(   85) = (   0.2500000   0.4330127  -0.3136763), wk =   0.0104167
        k(   86) = (   0.2500000   0.5292377   0.0000000), wk =   0.0208333
        k(   87) = (   0.2500000   0.5292377   0.0784191), wk =   0.0416667
        k(   88) = (   0.2500000   0.5292377   0.1568381), wk =   0.0416667
        k(   89) = (   0.2500000   0.5292377   0.2352572), wk =   0.0416667
        k(   90) = (   0.2500000   0.5292377  -0.3136763), wk =   0.0208333
        k(   91) = (   0.3333333   0.5773503   0.0000000), wk =   0.0034722
        k(   92) = (   0.3333333   0.5773503   0.0784191), wk =   0.0069444
        k(   93) = (   0.3333333   0.5773503   0.1568381), wk =   0.0069444
        k(   94) = (   0.3333333   0.5773503   0.2352572), wk =   0.0069444
        k(   95) = (   0.3333333   0.5773503  -0.3136763), wk =   0.0034722

     Dense  grid:    52615 G-vectors     FFT dimensions: (  45,  45,  72)

     Estimated max dynamical RAM per process >      88.71 MB

     Estimated total dynamical RAM >     354.84 MB

     Check: negative core charge=   -0.000009

     Initial potential from superposition of free atoms

     starting charge      21.9956, renormalised to      22.0000
     Starting wfcs are   20 randomized atomic wfcs
     Checking if some PAW data can be deallocated... 

     total cpu time spent up to now is        5.4 secs

     Self-consistent Calculation

     iteration #  1     ecut=   110.00 Ry     beta= 0.70
     Davidson diagonalization with overlap
     ethr =  1.00E-02,  avg # of iterations =  2.1

     Threshold (ethr) on eigenvalues was too large:
     Diagonalizing with lowered threshold

     Davidson diagonalization with overlap
     c_bands:  3 eigenvalues not converged
     c_bands:  1 eigenvalues not converged
     c_bands:  2 eigenvalues not converged
     c_bands:  1 eigenvalues not converged
     c_bands:  1 eigenvalues not converged
     c_bands:  5 eigenvalues not converged
     c_bands:  2 eigenvalues not converged
     c_bands:  3 eigenvalues not converged
     c_bands:  2 eigenvalues not converged
     c_bands:  2 eigenvalues not converged
     c_bands:  2 eigenvalues not converged
     c_bands:  4 eigenvalues not converged
     c_bands:  2 eigenvalues not converged
     c_bands:  1 eigenvalues not converged
     c_bands:  2 eigenvalues not converged
     c_bands:  3 eigenvalues not converged
     c_bands:  2 eigenvalues not converged
     c_bands:  2 eigenvalues not converged
     c_bands:  1 eigenvalues not converged
     c_bands:  1 eigenvalues not converged
     ethr =  2.26E-05,  avg # of iterations = 17.4

     total cpu time spent up to now is       49.7 secs

     total energy              =    -306.86743816 Ry
     estimated scf accuracy    <       0.01992546 Ry

     iteration #  2     ecut=   110.00 Ry     beta= 0.70
     Davidson diagonalization with overlap
     ethr =  9.06E-05,  avg # of iterations =  4.6

     total cpu time spent up to now is       59.3 secs

     total energy              =    -306.87235185 Ry
     estimated scf accuracy    <       0.00132160 Ry

     iteration #  3     ecut=   110.00 Ry     beta= 0.70
     Davidson diagonalization with overlap
     ethr =  6.01E-06,  avg # of iterations =  8.5

     total cpu time spent up to now is       74.1 secs

     total energy              =    -306.87344089 Ry
     estimated scf accuracy    <       0.00034497 Ry

     iteration #  4     ecut=   110.00 Ry     beta= 0.70
     Davidson diagonalization with overlap
     c_bands:  2 eigenvalues not converged
     c_bands:  2 eigenvalues not converged
     ethr =  1.57E-06,  avg # of iterations =  7.1

     total cpu time spent up to now is       86.4 secs

     total energy              =    -306.87363253 Ry
     estimated scf accuracy    <       0.00018402 Ry

     iteration #  5     ecut=   110.00 Ry     beta= 0.70
     Davidson diagonalization with overlap
     c_bands:  1 eigenvalues not converged
     ethr =  8.36E-07,  avg # of iterations =  6.3

     total cpu time spent up to now is       97.3 secs

     total energy              =    -306.87371899 Ry
     estimated scf accuracy    <       0.00001408 Ry

     iteration #  6     ecut=   110.00 Ry     beta= 0.70
     Davidson diagonalization with overlap
     ethr =  6.40E-08,  avg # of iterations = 10.0

     total cpu time spent up to now is      111.3 secs

     total energy              =    -306.87372622 Ry
     estimated scf accuracy    <       0.00002150 Ry

     iteration #  7     ecut=   110.00 Ry     beta= 0.70
     Davidson diagonalization with overlap
     ethr =  6.40E-08,  avg # of iterations =  5.2

     total cpu time spent up to now is      121.3 secs

     total energy              =    -306.87373160 Ry
     estimated scf accuracy    <       0.00000002 Ry

     iteration #  8     ecut=   110.00 Ry     beta= 0.70
     Davidson diagonalization with overlap
     c_bands:  2 eigenvalues not converged
     c_bands:  5 eigenvalues not converged
     c_bands:  1 eigenvalues not converged
     c_bands:  2 eigenvalues not converged
     c_bands:  2 eigenvalues not converged
     c_bands:  2 eigenvalues not converged
     c_bands:  1 eigenvalues not converged
     c_bands:  2 eigenvalues not converged
     c_bands:  3 eigenvalues not converged
     c_bands:  3 eigenvalues not converged
     c_bands:  3 eigenvalues not converged
     c_bands:  3 eigenvalues not converged
     c_bands:  2 eigenvalues not converged
     c_bands:  2 eigenvalues not converged
     c_bands:  3 eigenvalues not converged
     c_bands:  4 eigenvalues not converged
     c_bands:  4 eigenvalues not converged
     c_bands:  4 eigenvalues not converged
     c_bands:  3 eigenvalues not converged
     c_bands:  3 eigenvalues not converged
     c_bands:  4 eigenvalues not converged
     c_bands:  4 eigenvalues not converged
     c_bands:  5 eigenvalues not converged
     c_bands:  2 eigenvalues not converged
     c_bands:  1 eigenvalues not converged
     c_bands:  5 eigenvalues not converged
     c_bands:  4 eigenvalues not converged
     c_bands:  4 eigenvalues not converged
     c_bands:  3 eigenvalues not converged
     c_bands:  3 eigenvalues not converged
     c_bands:  2 eigenvalues not converged
     c_bands:  2 eigenvalues not converged
     c_bands:  2 eigenvalues not converged
     c_bands:  2 eigenvalues not converged
     c_bands:  3 eigenvalues not converged
     c_bands:  2 eigenvalues not converged
     c_bands:  1 eigenvalues not converged
     c_bands:  3 eigenvalues not converged
     c_bands:  4 eigenvalues not converged
     c_bands:  4 eigenvalues not converged
     c_bands:  3 eigenvalues not converged
     c_bands:  3 eigenvalues not converged
     c_bands:  4 eigenvalues not converged
     c_bands:  3 eigenvalues not converged
     c_bands:  3 eigenvalues not converged
     c_bands:  4 eigenvalues not converged
     c_bands:  3 eigenvalues not converged
     c_bands:  3 eigenvalues not converged
     c_bands:  4 eigenvalues not converged
     c_bands:  2 eigenvalues not converged
     c_bands:  3 eigenvalues not converged
     c_bands:  3 eigenvalues not converged
     c_bands:  3 eigenvalues not converged
     c_bands:  3 eigenvalues not converged
     c_bands:  3 eigenvalues not converged
     c_bands:  3 eigenvalues not converged
     c_bands:  2 eigenvalues not converged
     c_bands:  4 eigenvalues not converged
     c_bands:  3 eigenvalues not converged
     c_bands:  4 eigenvalues not converged
     c_bands:  2 eigenvalues not converged
     c_bands:  3 eigenvalues not converged
     c_bands:  4 eigenvalues not converged
     c_bands:  3 eigenvalues not converged
     c_bands:  4 eigenvalues not converged
     c_bands:  1 eigenvalues not converged
     c_bands:  4 eigenvalues not converged
     c_bands:  4 eigenvalues not converged
     c_bands:  3 eigenvalues not converged
     c_bands:  3 eigenvalues not converged
     c_bands:  3 eigenvalues not converged
     c_bands:  4 eigenvalues not converged
     c_bands:  1 eigenvalues not converged
     c_bands:  4 eigenvalues not converged
     c_bands:  3 eigenvalues not converged
     c_bands:  4 eigenvalues not converged
     c_bands:  4 eigenvalues not converged
     c_bands:  4 eigenvalues not converged
     c_bands:  4 eigenvalues not converged
     c_bands:  4 eigenvalues not converged
     c_bands:  3 eigenvalues not converged
     c_bands:  2 eigenvalues not converged
     c_bands:  4 eigenvalues not converged
     c_bands:  4 eigenvalues not converged
     c_bands:  4 eigenvalues not converged
     ethr =  9.93E-11,  avg # of iterations = 21.3

     total cpu time spent up to now is      164.4 secs

     total energy              =    -306.87373316 Ry
     estimated scf accuracy    <       0.00000004 Ry

     iteration #  9     ecut=   110.00 Ry     beta= 0.70
     Davidson diagonalization with overlap
     c_bands:  1 eigenvalues not converged
     ethr =  9.93E-11,  avg # of iterations =  6.6

     total cpu time spent up to now is      174.0 secs

     total energy              =    -306.87373316 Ry
     estimated scf accuracy    <       0.00000003 Ry

     iteration # 10     ecut=   110.00 Ry     beta= 0.70
     Davidson diagonalization with overlap
     ethr =  9.93E-11,  avg # of iterations =  1.4

     total cpu time spent up to now is      181.0 secs

     total energy              =    -306.87373315 Ry
     estimated scf accuracy    <       0.00000001 Ry

     iteration # 11     ecut=   110.00 Ry     beta= 0.70
     Davidson diagonalization with overlap
     ethr =  6.60E-11,  avg # of iterations =  6.5

     total cpu time spent up to now is      192.4 secs

     End of self-consistent calculation

          k = 0.0000 0.0000 0.0000 (  6645 PWs)   bands (ev):

   -40.1390 -40.0747 -19.2242 -18.8907 -18.8907 -18.8323 -18.8323 -18.8153
     3.7531   7.1392   9.3012  10.3500  10.3500  10.4602  10.7538

          k = 0.0000 0.0000 0.0784 (  6615 PWs)   bands (ev):

   -40.1366 -40.0771 -19.2091 -18.8885 -18.8885 -18.8345 -18.8345 -18.8314
     3.8543   6.9859   9.2698  10.3073  10.3079  10.3989  10.6982

          k = 0.0000 0.0000 0.1568 (  6609 PWs)   bands (ev):

   -40.1296 -40.0841 -19.1660 -18.8822 -18.8822 -18.8769 -18.8409 -18.8409
     4.1513   6.5411   9.2771  10.2124  10.2449  10.2449  10.5632

          k = 0.0000 0.0000 0.2353 (  6580 PWs)   bands (ev):

   -40.1192 -40.0946 -19.1009 -18.9445 -18.8727 -18.8727 -18.8504 -18.8504
     4.6230   5.9063   9.4171   9.9497  10.2329  10.2330  10.4107

          k = 0.0000 0.0000-0.3137 (  6562 PWs)   bands (ev):

   -40.1069 -40.1069 -19.0232 -19.0232 -18.8615 -18.8615 -18.8615 -18.8615
     5.2301   5.2301   9.6629   9.6629  10.2909  10.2909  10.2909

          k = 0.0000 0.0962 0.0000 (  6592 PWs)   bands (ev):

   -40.1357 -40.0733 -19.2154 -18.9089 -18.8967 -18.8513 -18.8349 -18.8190
     3.9044   7.2692   9.1756  10.0808  10.4595  10.6275  10.6897

          k = 0.0000 0.0962 0.0784 (  6617 PWs)   bands (ev):

   -40.1333 -40.0757 -19.2012 -18.9063 -18.8944 -18.8594 -18.8372 -18.8287
     4.0041   7.1155   9.1476  10.0769  10.4050  10.5025  10.6323

          k = 0.0000 0.0962 0.1568 (  6590 PWs)   bands (ev):

   -40.1266 -40.0825 -19.1607 -18.8993 -18.8928 -18.8877 -18.8450 -18.8440
     4.2969   6.6684   9.1696  10.0827  10.2314  10.3317  10.6475

          k = 0.0000 0.0962 0.2353 (  6570 PWs)   bands (ev):

   -40.1165 -40.0926 -19.0997 -18.9541 -18.8871 -18.8777 -18.8592 -18.8540
     4.7624   6.0340   9.3302   9.9164  10.1294  10.3167  10.3744

          k = 0.0000 0.0962-0.3137 (  6582 PWs)   bands (ev):

   -40.1046 -40.1046 -19.0270 -19.0270 -18.8734 -18.8734 -18.8659 -18.8659
     5.3628   5.3628   9.5987   9.5987  10.2300  10.2305  10.3749

          k = 0.0000 0.1925 0.0000 (  6586 PWs)   bands (ev):

   -40.1264 -40.0697 -19.1902 -18.9590 -18.9128 -18.9025 -18.8424 -18.8302
     4.3436   7.6175   8.8895   9.6696  10.4042  10.7790  10.8105

          k = 0.0000 0.1925 0.0784 (  6595 PWs)   bands (ev):

   -40.1243 -40.0719 -19.1791 -18.9549 -18.9120 -18.9101 -18.8451 -18.8365
     4.4385   7.4641   8.8730   9.6890  10.3953  10.5405  10.6270

          k = 0.0000 0.1925 0.1568 (  6601 PWs)   bands (ev):

   -40.1182 -40.0781 -19.1475 -18.9484 -18.9353 -18.9026 -18.8530 -18.8528
     4.7174   7.0136   8.9338   9.7457  10.1701  10.4043  10.5366

          k = 0.0000 0.1925 0.2353 (  6572 PWs)   bands (ev):

   -40.1090 -40.0873 -19.1001 -18.9889 -18.9217 -18.8912 -18.8751 -18.8642
     5.1617   6.3874   9.1351   9.7341   9.9535  10.2560  10.5303

          k = 0.0000 0.1925-0.3137 (  6574 PWs)   bands (ev):

   -40.0982 -40.0982 -19.0442 -19.0442 -18.8990 -18.8990 -18.8777 -18.8777
     5.7375   5.7375   9.4312   9.4312  10.0749  10.0750  10.6015

          k = 0.0000 0.2887 0.0000 (  6590 PWs)   bands (ev):

   -40.1133 -40.0654 -19.1524 -19.0282 -18.9703 -18.9340 -18.8534 -18.8490
     5.0251   8.0244   8.5815   9.2453  10.1849  10.4657  10.5658

          k = 0.0000 0.2887 0.0784 (  6592 PWs)   bands (ev):

   -40.1115 -40.0672 -19.1489 -19.0195 -18.9794 -18.9309 -18.8565 -18.8523
     5.1103   7.8763   8.5922   9.2761  10.1572  10.4059  10.5788

          k = 0.0000 0.2887 0.1568 (  6582 PWs)   bands (ev):

   -40.1063 -40.0725 -19.1371 -19.0153 -18.9845 -18.9222 -18.8652 -18.8639
     5.3607   7.4428   8.7093   9.3526  10.0113  10.2949  10.6284

          k = 0.0000 0.2887 0.2353 (  6583 PWs)   bands (ev):

   -40.0985 -40.0802 -19.1152 -19.0477 -18.9529 -18.9092 -18.8859 -18.8784
     5.7597   6.8652   8.9360   9.3900   9.8525  10.1252  10.7292

          k = 0.0000 0.2887-0.3137 (  6600 PWs)   bands (ev):

   -40.0894 -40.0894 -19.0840 -19.0840 -18.9170 -18.9170 -18.8938 -18.8938
     6.2775   6.2775   9.2082   9.2082   9.9278   9.9279  10.8820

          k = 0.0000 0.3849 0.0000 (  6596 PWs)   bands (ev):

   -40.0991 -40.0621 -19.1080 -19.0980 -19.0359 -18.9545 -18.8742 -18.8649
     5.8644   8.1836   8.3319   8.9108  10.2106  10.2186  10.3534

          k = 0.0000 0.3849 0.0784 (  6583 PWs)   bands (ev):

   -40.0977 -40.0635 -19.1344 -19.0671 -19.0404 -18.9511 -18.8742 -18.8683
     5.9314   8.0422   8.4009   8.9524  10.0657  10.2973  10.4029

          k = 0.0000 0.3849 0.1568 (  6584 PWs)   bands (ev):

   -40.0937 -40.0675 -19.1511 -19.0797 -19.0069 -18.9415 -18.8784 -18.8781
     6.1276   7.7097   8.5618   9.0405   9.9201  10.2470  10.5480

          k = 0.0000 0.3849 0.2353 (  6574 PWs)   bands (ev):

   -40.0877 -40.0735 -19.1515 -19.1102 -18.9610 -18.9270 -18.8933 -18.8927
     6.4381   7.2807   8.7846   9.0941   9.8330  10.0781  10.7782

          k = 0.0000 0.3849-0.3137 (  6580 PWs)   bands (ev):

   -40.0806 -40.0806 -19.1365 -19.1365 -18.9214 -18.9214 -18.9099 -18.9099
     6.8363   6.8363   9.0007   9.0007   9.8947   9.8947  11.0731

          k = 0.0000 0.4811 0.0000 (  6568 PWs)   bands (ev):

   -40.0873 -40.0610 -19.1493 -19.0829 -19.0668 -18.9692 -18.9014 -18.8735
     6.7155   8.0179   8.1747   8.6613  10.0480  10.2121  10.4241

          k = 0.0000 0.4811 0.0784 (  6569 PWs)   bands (ev):

   -40.0863 -40.0620 -19.1634 -19.0967 -19.0419 -18.9656 -18.8979 -18.8772
     6.7471   7.9221   8.2736   8.6916  10.0534  10.2741  10.3778

          k = 0.0000 0.4811 0.1568 (  6562 PWs)   bands (ev):

   -40.0834 -40.0649 -19.1821 -19.1252 -18.9979 -18.9553 -18.8942 -18.8877
     6.8435   7.7267   8.4670   8.7884  10.0405  10.2550  10.4569

          k = 0.0000 0.4811 0.2353 (  6568 PWs)   bands (ev):

   -40.0792 -40.0691 -19.1883 -19.1559 -18.9544 -18.9399 -18.9033 -18.9001
     7.0053   7.4783   8.6980   8.8988   9.9838  10.1055  10.7501

          k = 0.0000 0.4811-0.3137 (  6568 PWs)   bands (ev):

   -40.0741 -40.0741 -19.1789 -19.1789 -18.9216 -18.9216 -18.9203 -18.9203
     7.2246   7.2246   8.8812   8.8812   9.9872   9.9875  11.1344

          k = 0.0000-0.5774 0.0000 (  6560 PWs)   bands (ev):

   -40.0823 -40.0613 -19.1681 -19.0998 -19.0474 -18.9745 -18.9156 -18.8767
     7.2298   7.7824   8.1214   8.5461   9.9872  10.1628  10.5233

          k = 0.0000-0.5774 0.0784 (  6552 PWs)   bands (ev):

   -40.0815 -40.0621 -19.1793 -19.1125 -19.0284 -18.9708 -18.9103 -18.8805
     7.2093   7.7594   8.2326   8.5433  10.0424  10.2282  10.4523

          k = 0.0000-0.5774 0.1568 (  6562 PWs)   bands (ev):

   -40.0792 -40.0644 -19.1964 -19.1417 -18.9892 -18.9603 -18.9024 -18.8912
     7.1940   7.6666   8.4958   8.5943  10.1384  10.2727  10.4214

          k = 0.0000-0.5774 0.2353 (  6558 PWs)   bands (ev):

   -40.0758 -40.0678 -19.2032 -19.1725 -18.9495 -18.9445 -18.9071 -18.9036
     7.2376   7.5100   8.7323   8.7644  10.0902  10.1458  10.7325

          k = 0.0000-0.5774-0.3137 (  6576 PWs)   bands (ev):

   -40.0718 -40.0718 -19.1949 -19.1949 -18.9259 -18.9259 -18.9194 -18.9194
     7.3503   7.3503   8.8500   8.8500  10.0613  10.0618  11.1428

          k = 0.0833 0.1443 0.0000 (  6593 PWs)   bands (ev):

   -40.1294 -40.0708 -19.1984 -18.9396 -18.9158 -18.8794 -18.8424 -18.8265
     4.1999   7.5106   8.9750   9.7814  10.4848  10.6888  10.7595

          k = 0.0833 0.1443 0.0784 (  6600 PWs)   bands (ev):

   -40.1272 -40.0731 -19.1862 -18.9359 -18.9152 -18.8874 -18.8450 -18.8332
     4.2965   7.3567   8.9540   9.7964  10.4926  10.5083  10.5822

          k = 0.0833 0.1443 0.1568 (  6598 PWs)   bands (ev):

   -40.1209 -40.0795 -19.1514 -18.9292 -18.9255 -18.8974 -18.8523 -18.8490
     4.5803   6.9063   9.0022   9.8448  10.1963  10.4324  10.4902

          k = 0.0833 0.1443 0.2353 (  6582 PWs)   bands (ev):

   -40.1114 -40.0890 -19.0991 -18.9764 -18.9098 -18.8906 -18.8676 -18.8630
     5.0323   6.2757   9.1929   9.8101   9.9867  10.2850  10.4761

          k = 0.0833 0.1443-0.3137 (  6582 PWs)   bands (ev):

   -40.1002 -40.1002 -19.0374 -19.0374 -18.8921 -18.8921 -18.8742 -18.8742
     5.6172   5.6172   9.4856   9.4857  10.1155  10.1156  10.5321

          k = 0.0833 0.2406 0.0000 (  6601 PWs)   bands (ev):

   -40.1182 -40.0669 -19.1668 -18.9946 -18.9608 -18.9135 -18.8554 -18.8415
     4.7623   7.9077   8.6960   9.3705  10.2553  10.4606  10.7534

          k = 0.0833 0.2406 0.0784 (  6592 PWs)   bands (ev):

   -40.1162 -40.0689 -19.1595 -18.9886 -18.9648 -18.9167 -18.8585 -18.8449
     4.8519   7.7560   8.6918   9.3982  10.2644  10.3820  10.6762

          k = 0.0833 0.2406 0.1568 (  6586 PWs)   bands (ev):

   -40.1107 -40.0745 -19.1385 -18.9894 -18.9657 -18.9174 -18.8672 -18.8560
     5.1152   7.3072   8.7864   9.4736  10.0853  10.3007  10.6258

          k = 0.0833 0.2406 0.2353 (  6584 PWs)   bands (ev):

   -40.1024 -40.0828 -19.1058 -19.0237 -18.9409 -18.9108 -18.8805 -18.8736
     5.5350   6.7000   9.0091   9.5176   9.8704  10.1405  10.6776

          k = 0.0833 0.2406-0.3137 (  6592 PWs)   bands (ev):

   -40.0926 -40.0926 -19.0656 -19.0656 -18.9147 -18.9147 -18.8876 -18.8876
     6.0804   6.0804   9.2997   9.2997   9.9456   9.9458  10.7833

          k = 0.0833 0.3368 0.0000 (  6581 PWs)   bands (ev):

   -40.1044 -40.0631 -19.1254 -19.0627 -19.0155 -18.9450 -18.8692 -18.8638
     5.5301   8.2261   8.4405   8.9950  10.1515  10.2046  10.5098

          k = 0.0833 0.3368 0.0784 (  6586 PWs)   bands (ev):

   -40.1029 -40.0647 -19.1322 -19.0490 -19.0190 -18.9448 -18.8740 -18.8627
     5.6065   8.0777   8.4825   9.0327  10.0611  10.2712  10.4925

          k = 0.0833 0.3368 0.1568 (  6591 PWs)   bands (ev):

   -40.0984 -40.0692 -19.1377 -19.0545 -18.9987 -18.9402 -18.8846 -18.8665
     5.8308   7.6810   8.6303   9.1227   9.9183  10.2205  10.5625

          k = 0.0833 0.3368 0.2353 (  6585 PWs)   bands (ev):

   -40.0917 -40.0759 -19.1309 -19.0831 -18.9606 -18.9294 -18.8985 -18.8801
     6.1875   7.1693   8.8561   9.1949   9.7844  10.0278  10.7524

          k = 0.0833 0.3368-0.3137 (  6586 PWs)   bands (ev):

   -40.0838 -40.0838 -19.1113 -19.1113 -18.9307 -18.9307 -18.8993 -18.8993
     6.6484   6.6484   9.0924   9.0924   9.8292   9.8292  10.9895

          k = 0.0833 0.4330 0.0000 (  6580 PWs)   bands (ev):

   -40.0912 -40.0611 -19.1231 -19.0813 -19.0633 -18.9694 -18.8912 -18.8811
     6.3936   8.1979   8.2570   8.7309  10.0369  10.2775  10.3214

          k = 0.0833 0.4330 0.0784 (  6579 PWs)   bands (ev):

   -40.0901 -40.0623 -19.1421 -19.0814 -19.0459 -18.9669 -18.8926 -18.8805
     6.4458   8.0659   8.3508   8.7820   9.9856  10.2611  10.3647

          k = 0.0833 0.4330 0.1568 (  6572 PWs)   bands (ev):

   -40.0868 -40.0656 -19.1620 -19.1055 -19.0041 -18.9566 -18.9016 -18.8792
     6.5986   7.8126   8.5199   8.8949   9.8822  10.1542  10.5175

          k = 0.0833 0.4330 0.2353 (  6576 PWs)   bands (ev):

   -40.0820 -40.0704 -19.1675 -19.1345 -18.9679 -18.9383 -18.9146 -18.8860
     6.8400   7.4887   8.7437   8.9887   9.7953   9.9683  10.7685

          k = 0.0833 0.4330-0.3137 (  6574 PWs)   bands (ev):

   -40.0762 -40.0762 -19.1574 -19.1574 -18.9430 -18.9430 -18.9040 -18.9040
     7.1483   7.1483   8.9427   8.9427   9.8128   9.8128  11.0942

          k = 0.0833 0.5292 0.0000 (  6567 PWs)   bands (ev):

   -40.0823 -40.0613 -19.1579 -19.0910 -19.0477 -18.9829 -18.9152 -18.8881
     7.1519   7.9460   8.1630   8.5447   9.9714  10.1214  10.5186

          k = 0.0833 0.5292 0.0784 (  6566 PWs)   bands (ev):

   -40.0815 -40.0621 -19.1691 -19.1042 -19.0304 -18.9774 -18.9123 -18.8893
     7.1566   7.8946   8.2653   8.5666   9.9869  10.1286  10.5055

          k = 0.0833 0.5292 0.1568 (  6565 PWs)   bands (ev):

   -40.0792 -40.0643 -19.1862 -19.1332 -18.9995 -18.9592 -18.9151 -18.8887
     7.1881   7.7693   8.4844   8.6718   9.9876  10.0674  10.5778

          k = 0.0833 0.5292 0.2353 (  6572 PWs)   bands (ev):

   -40.0758 -40.0678 -19.1932 -19.1636 -18.9732 -18.9345 -18.9260 -18.8907
     7.2721   7.5931   8.7228   8.8463   9.8811   9.9530  10.8208

          k = 0.0833 0.5292-0.3137 (  6554 PWs)   bands (ev):

   -40.0718 -40.0718 -19.1854 -19.1854 -18.9507 -18.9507 -18.9044 -18.9044
     7.4135   7.4135   8.8912   8.8912   9.8448   9.8449  11.1714

          k = 0.1667 0.2887 0.0000 (  6585 PWs)   bands (ev):

   -40.1064 -40.0636 -19.1314 -19.0327 -19.0250 -18.9337 -18.8790 -18.8604
     5.4164   8.2628   8.4954   8.9989  10.1420  10.1602  10.5986

          k = 0.1667 0.2887 0.0784 (  6579 PWs)   bands (ev):

   -40.1047 -40.0652 -19.1332 -19.0291 -19.0194 -18.9388 -18.8820 -18.8597
     5.4961   8.1095   8.5249   9.0326  10.1099  10.1912  10.5438

          k = 0.1667 0.2887 0.1568 (  6594 PWs)   bands (ev):

   -40.1001 -40.0699 -19.1322 -19.0446 -18.9883 -18.9445 -18.8901 -18.8631
     5.7301   7.6827   8.6668   9.1254   9.9603  10.1817  10.5358

          k = 0.1667 0.2887 0.2353 (  6586 PWs)   bands (ev):

   -40.0932 -40.0768 -19.1211 -19.0710 -18.9539 -18.9415 -18.8994 -18.8763
     6.1029   7.1366   8.8945   9.2231   9.7774   9.9867  10.7096

          k = 0.1667 0.2887-0.3137 (  6596 PWs)   bands (ev):

   -40.0850 -40.0850 -19.0993 -19.0993 -18.9368 -18.9368 -18.8956 -18.8956
     6.5866   6.5866   9.1382   9.1382   9.7857   9.7857  10.9333

          k = 0.1667 0.3849 0.0000 (  6571 PWs)   bands (ev):

   -40.0934 -40.0613 -19.0892 -19.0884 -19.0595 -18.9662 -18.9014 -18.8859
     6.2278   8.3437   8.4187   8.6997   9.9478  10.2285  10.3571

          k = 0.1667 0.3849 0.0784 (  6572 PWs)   bands (ev):

   -40.0922 -40.0625 -19.1188 -19.0794 -19.0356 -18.9709 -18.9056 -18.8802
     6.2910   8.2247   8.4783   8.7451   9.9116  10.2522  10.3066

          k = 0.1667 0.3849 0.1568 (  6567 PWs)   bands (ev):

   -40.0887 -40.0660 -19.1393 -19.0934 -18.9973 -18.9718 -18.9141 -18.8745
     6.4759   7.9365   8.6233   8.8541   9.8158  10.0733  10.4322

          k = 0.1667 0.3849 0.2353 (  6578 PWs)   bands (ev):

   -40.0835 -40.0712 -19.1448 -19.1157 -18.9765 -18.9577 -18.9161 -18.8794
     6.7677   7.5497   8.8254   8.9797   9.6875   9.8302  10.6652

          k = 0.1667 0.3849-0.3137 (  6574 PWs)   bands (ev):

   -40.0774 -40.0774 -19.1356 -19.1356 -18.9626 -18.9626 -18.8968 -18.8968
     7.1397   7.1397   8.9944   8.9944   9.6568   9.6568  10.9743

          k = 0.1667 0.4811 0.0000 (  6564 PWs)   bands (ev):

   -40.0824 -40.0612 -19.1314 -19.0757 -19.0484 -18.9976 -18.9165 -18.9146
     7.0539   8.2452   8.2560   8.5329   9.8645  10.1066  10.4863

          k = 0.1667 0.4811 0.0784 (  6571 PWs)   bands (ev):

   -40.0816 -40.0620 -19.1419 -19.0923 -19.0305 -18.9922 -18.9256 -18.9015
     7.0891   8.1448   8.3472   8.6043   9.8367  10.0435  10.5047

          k = 0.1667 0.4811 0.1568 (  6566 PWs)   bands (ev):

   -40.0793 -40.0643 -19.1596 -19.1179 -19.0164 -18.9674 -18.9341 -18.8878
     7.1925   7.9877   8.5091   8.7649   9.7477   9.8690  10.5925

          k = 0.1667 0.4811 0.2353 (  6570 PWs)   bands (ev):

   -40.0759 -40.0677 -19.1684 -19.1442 -19.0017 -18.9651 -18.9189 -18.8842
     7.3561   7.7852   8.7379   8.9336   9.6186   9.6376  10.7799

          k = 0.1667 0.4811-0.3137 (  6570 PWs)   bands (ev):

   -40.0718 -40.0718 -19.1629 -19.1629 -18.9830 -18.9830 -18.8952 -18.8952
     7.5631   7.5631   8.9470   8.9470   9.5239   9.5239  11.0643

          k = 0.1667 0.5774 0.0000 (  6562 PWs)   bands (ev):

   -40.0775 -40.0621 -19.1470 -19.0800 -19.0277 -19.0110 -18.9308 -18.9218
     7.5564   8.0287   8.2282   8.4379   9.9085   9.9401  10.6144

          k = 0.1667 0.5774 0.0784 (  6553 PWs)   bands (ev):

   -40.0769 -40.0626 -19.1553 -19.0938 -19.0329 -18.9876 -18.9374 -18.9109
     7.5482   8.0158   8.3203   8.4700   9.8722   9.9045  10.6274

          k = 0.1667 0.5774 0.1568 (  6559 PWs)   bands (ev):

   -40.0752 -40.0643 -19.1705 -19.1237 -19.0271 -18.9507 -18.9505 -18.8947
     7.5547   7.9541   8.5517   8.5903   9.7657   9.7722  10.7052

          k = 0.1667 0.5774 0.2353 (  6556 PWs)   bands (ev):

   -40.0727 -40.0668 -19.1785 -19.1533 -19.0113 -18.9693 -18.9167 -18.8872
     7.6093   7.8403   8.7974   8.8351   9.5534   9.5937  10.8839

          k = 0.1667 0.5774-0.3137 (  6570 PWs)   bands (ev):

   -40.0697 -40.0697 -19.1730 -19.1730 -18.9907 -18.9907 -18.8943 -18.8943
     7.7123   7.7123   8.9774   8.9774   9.4317   9.4317  11.1533

          k = 0.2500 0.4330 0.0000 (  6562 PWs)   bands (ev):

   -40.0825 -40.0612 -19.1087 -19.0790 -19.0487 -18.9969 -18.9374 -18.9142
     7.0182   8.3090   8.4409   8.4815   9.7885  10.1166  10.4532

          k = 0.2500 0.4330 0.0784 (  6577 PWs)   bands (ev):

   -40.0816 -40.0620 -19.1107 -19.1070 -19.0164 -19.0071 -18.9398 -18.9036
     7.0650   8.2470   8.4780   8.5577   9.7724  10.0122  10.4634

          k = 0.2500 0.4330 0.1568 (  6565 PWs)   bands (ev):

   -40.0793 -40.0643 -19.1354 -19.1199 -19.0182 -18.9834 -18.9392 -18.8878
     7.2001   8.1092   8.5876   8.7162   9.7058   9.7688  10.5202

          k = 0.2500 0.4330 0.2353 (  6567 PWs)   bands (ev):

   -40.0759 -40.0677 -19.1498 -19.1361 -19.0144 -18.9844 -18.9161 -18.8825
     7.4068   7.9051   8.7577   8.8927   9.5112   9.5697  10.6795

          k = 0.2500 0.4330-0.3137 (  6568 PWs)   bands (ev):

   -40.0718 -40.0718 -19.1490 -19.1490 -19.0001 -19.0001 -18.8925 -18.8925
     7.6559   7.6559   8.9259   8.9259   9.4295   9.4295  10.9648

          k = 0.2500 0.5292 0.0000 (  6563 PWs)   bands (ev):

   -40.0741 -40.0631 -19.1239 -19.0677 -19.0316 -19.0125 -18.9601 -18.9434
     7.7094   8.2588   8.3107   8.3762   9.7626   9.8909  10.6772

          k = 0.2500 0.5292 0.0784 (  6557 PWs)   bands (ev):

   -40.0736 -40.0635 -19.1269 -19.0866 -19.0471 -18.9871 -18.9644 -18.9268
     7.7376   8.2315   8.3435   8.4648   9.7223   9.7958  10.6813

          k = 0.2500 0.5292 0.1568 (  6561 PWs)   bands (ev):

   -40.0725 -40.0647 -19.1393 -19.1137 -19.0567 -18.9863 -18.9396 -18.9025
     7.8156   8.1880   8.4675   8.6481   9.5463   9.6083  10.7166

          k = 0.2500 0.5292 0.2353 (  6558 PWs)   bands (ev):

   -40.0707 -40.0665 -19.1516 -19.1378 -19.0468 -19.0050 -18.9079 -18.8881
     7.9247   8.1283   8.6719   8.8859   9.2464   9.4053  10.8308

          k = 0.2500 0.5292-0.3137 (  6552 PWs)   bands (ev):

   -40.0686 -40.0686 -19.1518 -19.1518 -19.0270 -19.0270 -18.8896 -18.8896
     8.0376   8.0376   8.9372   8.9372   9.1552   9.1552  11.0604

          k = 0.3333 0.5774 0.0000 (  6546 PWs)   bands (ev):

   -40.0674 -40.0674 -19.1144 -19.0530 -19.0530 -18.9858 -18.9767 -18.9767
     8.1579   8.1579   8.2617   8.3471   9.7594   9.7594  10.7721

          k = 0.3333 0.5774 0.0784 (  6582 PWs)   bands (ev):

   -40.0674 -40.0674 -19.1095 -19.0745 -19.0745 -18.9908 -18.9549 -18.9549
     8.2036   8.2036   8.2806   8.3657   9.6819   9.6819  10.7707

          k = 0.3333 0.5774 0.1568 (  6555 PWs)   bands (ev):

   -40.0674 -40.0674 -19.1076 -19.1076 -19.0957 -19.0049 -18.9211 -18.9211
     8.3309   8.3340   8.3340   8.4087   9.4814   9.4814  10.7876

          k = 0.3333 0.5774 0.2353 (  6555 PWs)   bands (ev):

   -40.0674 -40.0674 -19.1316 -19.1316 -19.0750 -19.0259 -18.8965 -18.8965
     8.3932   8.4431   8.5217   8.5217   9.2315   9.2315  10.8739

          k = 0.3333 0.5774-0.3137 (  6540 PWs)   bands (ev):

   -40.0674 -40.0674 -19.1402 -19.1402 -19.0505 -19.0505 -18.8877 -18.8877
     8.4386   8.4386   8.6523   8.6523   9.0770   9.0770  11.0783

     the Fermi energy is     8.8141 ev

!    total energy              =    -306.87373316 Ry
     total all-electron energy =     -3050.014504 Ry
     estimated scf accuracy    <          4.3E-09 Ry
     smearing contrib. (-TS)   =      -0.00104027 Ry
     internal energy E=F+TS    =    -306.87269289 Ry

     The total energy is F=E-TS. E is the sum of the following terms:
     one-electron contribution =     -74.40829945 Ry
     hartree contribution      =      42.28633231 Ry
     xc contribution           =     -34.52786167 Ry
     ewald contribution        =    -126.46581261 Ry
     one-center paw contrib.   =    -113.75705147 Ry

     convergence has been achieved in  11 iterations

     Forces acting on atoms (cartesian axes, Ry/au):

     atom    1 type  1   force =    -0.00000000   -0.00000000    0.00000000
     atom    2 type  1   force =    -0.00000000    0.00000000    0.00000000
     The non-local contrib.  to forces
     atom    1 type  1   force =     0.00000000    0.00000000    0.00000000
     atom    2 type  1   force =     0.00000000    0.00000000    0.00000000
     The ionic contribution  to forces
     atom    1 type  1   force =     0.00000000   -0.00000000    0.00000000
     atom    2 type  1   force =    -0.00000000    0.00000000    0.00000000
     The local contribution  to forces
     atom    1 type  1   force =     0.00000000    0.00000000    0.00000000
     atom    2 type  1   force =    -0.00000000    0.00000000    0.00000000
     The core correction contribution to forces
     atom    1 type  1   force =    -0.00000000   -0.00000000    0.00000000
     atom    2 type  1   force =     0.00000000   -0.00000000    0.00000000
     The Hubbard contrib.    to forces
     atom    1 type  1   force =     0.00000000    0.00000000    0.00000000
     atom    2 type  1   force =     0.00000000    0.00000000    0.00000000
     The SCF correction term to forces
     atom    1 type  1   force =     0.00000000    0.00000000    0.00000000
     atom    2 type  1   force =     0.00000000   -0.00000000    0.00000000

     Total force =     0.000000     Total SCF correction =     0.000000


     Computing stress (Cartesian axis) and pressure

          total   stress  (Ry/bohr**3)                   (kbar)     P=      -54.87
  -0.00033280   0.00000000  -0.00000000          -48.96        0.00       -0.00
   0.00000000  -0.00033280  -0.00000000            0.00      -48.96       -0.00
   0.00000000   0.00000000  -0.00045350            0.00        0.00      -66.71


     BFGS Geometry Optimization
     Energy error            =      0.0E+00 Ry
     Gradient error          =      1.6E-27 Ry/Bohr
     Cell gradient error     =      6.7E+01 kbar

     number of scf cycles    =   1
     number of bfgs steps    =   0

     enthalpy           new  =    -306.8737331566 Ry

     new trust radius        =       0.0416577613 bohr
     new conv_thr            =       0.0000000100 Ry

     new unit-cell volume =    328.16869 a.u.^3 (    48.62958 Ang^3 )
     density =      3.04561 g/cm^3

CELL_PARAMETERS (alat=  6.25310370)
   0.991680097   0.000000000   0.000000000
  -0.495840049   0.858820157   0.000000000
  -0.000000000  -0.000000000   1.575928203

ATOMIC_POSITIONS (crystal)
Sc           -0.0000000000       -0.0000000000        0.0000000000
Sc            0.6666666667        0.3333333333        0.5000000000



     Writing config-only to output data dir sc_vcrelax.out/scandium.save/
     NEW-OLD atomic charge density approx. for the potential

     Check: negative core charge=   -0.000008
     extrapolated charge   21.37290, renormalised to   22.00000

     total cpu time spent up to now is      203.4 secs

     Self-consistent Calculation

     iteration #  1     ecut=   110.00 Ry     beta= 0.70
     Davidson diagonalization with overlap
     c_bands:  1 eigenvalues not converged
     c_bands:  1 eigenvalues not converged
     c_bands:  1 eigenvalues not converged
     c_bands:  1 eigenvalues not converged
     c_bands:  1 eigenvalues not converged
     c_bands:  2 eigenvalues not converged
     c_bands:  1 eigenvalues not converged
     c_bands:  1 eigenvalues not converged
     c_bands:  2 eigenvalues not converged
     c_bands:  1 eigenvalues not converged
     c_bands:  3 eigenvalues not converged
     c_bands:  5 eigenvalues not converged
     c_bands:  2 eigenvalues not converged
     c_bands:  3 eigenvalues not converged
     c_bands:  4 eigenvalues not converged
     c_bands:  1 eigenvalues not converged
     c_bands:  1 eigenvalues not converged
     c_bands:  1 eigenvalues not converged
     c_bands:  2 eigenvalues not converged
     c_bands:  2 eigenvalues not converged
     c_bands:  2 eigenvalues not converged
     c_bands:  4 eigenvalues not converged
     c_bands:  2 eigenvalues not converged
     c_bands:  1 eigenvalues not converged
     c_bands:  2 eigenvalues not converged
     c_bands:  2 eigenvalues not converged
     c_bands:  3 eigenvalues not converged
     c_bands:  5 eigenvalues not converged
     c_bands:  5 eigenvalues not converged
     c_bands:  5 eigenvalues not converged
     c_bands:  2 eigenvalues not converged
     c_bands:  2 eigenvalues not converged
     c_bands:  3 eigenvalues not converged
     c_bands:  3 eigenvalues not converged
     c_bands:  2 eigenvalues not converged
     c_bands:  5 eigenvalues not converged
     c_bands:  3 eigenvalues not converged
     c_bands:  1 eigenvalues not converged
     c_bands:  4 eigenvalues not converged
     c_bands:  4 eigenvalues not converged
     c_bands:  1 eigenvalues not converged
     c_bands:  1 eigenvalues not converged
     c_bands:  5 eigenvalues not converged
     c_bands:  2 eigenvalues not converged
     c_bands:  3 eigenvalues not converged
     c_bands:  3 eigenvalues not converged
     c_bands:  4 eigenvalues not converged
     c_bands:  5 eigenvalues not converged
     c_bands:  2 eigenvalues not converged
     c_bands:  1 eigenvalues not converged
     c_bands:  1 eigenvalues not converged
     c_bands:  4 eigenvalues not converged
     c_bands:  3 eigenvalues not converged
     ethr =  1.00E-06,  avg # of iterations = 19.5

     total cpu time spent up to now is      237.7 secs

     total energy              =    -306.76640850 Ry
     estimated scf accuracy    <       0.07953484 Ry

     iteration #  2     ecut=   110.00 Ry     beta= 0.70
     Davidson diagonalization with overlap
     ethr =  3.62E-04,  avg # of iterations =  7.0

     total cpu time spent up to now is      252.7 secs

     total energy              =    -306.87971095 Ry
     estimated scf accuracy    <       0.13383143 Ry

     iteration #  3     ecut=   110.00 Ry     beta= 0.70
     Davidson diagonalization with overlap
     ethr =  3.62E-04,  avg # of iterations =  1.2

     total cpu time spent up to now is      259.7 secs

     total energy              =    -306.87436612 Ry
     estimated scf accuracy    <       0.04107183 Ry

     iteration #  4     ecut=   110.00 Ry     beta= 0.70
     Davidson diagonalization with overlap
     ethr =  1.87E-04,  avg # of iterations =  2.6

     total cpu time spent up to now is      267.6 secs

     total energy              =    -306.87339134 Ry
     estimated scf accuracy    <       0.01722002 Ry

     iteration #  5     ecut=   110.00 Ry     beta= 0.70
     Davidson diagonalization with overlap
     ethr =  7.83E-05,  avg # of iterations =  2.9

     total cpu time spent up to now is      275.4 secs

     total energy              =    -306.87538187 Ry
     estimated scf accuracy    <       0.00707556 Ry

     iteration #  6     ecut=   110.00 Ry     beta= 0.70
     Davidson diagonalization with overlap
     ethr =  3.22E-05,  avg # of iterations =  4.6

     total cpu time spent up to now is      284.3 secs

     total energy              =    -306.87693215 Ry
     estimated scf accuracy    <       0.00405800 Ry

     iteration #  7     ecut=   110.00 Ry     beta= 0.70
     Davidson diagonalization with overlap
     ethr =  1.84E-05,  avg # of iterations =  2.7

     total cpu time spent up to now is      292.2 secs

     total energy              =    -306.87760557 Ry
     estimated scf accuracy    <       0.00313621 Ry

     iteration #  8     ecut=   110.00 Ry     beta= 0.70
     Davidson diagonalization with overlap
     ethr =  1.43E-05,  avg # of iterations =  1.7

     total cpu time spent up to now is      299.5 secs

     total energy              =    -306.87697741 Ry
     estimated scf accuracy    <       0.00336799 Ry

     iteration #  9     ecut=   110.00 Ry     beta= 0.70
     Davidson diagonalization with overlap
     ethr =  1.43E-05,  avg # of iterations =  1.4

     total cpu time spent up to now is      306.5 secs

     total energy              =    -306.87570212 Ry
     estimated scf accuracy    <       0.00197000 Ry

     iteration # 10     ecut=   110.00 Ry     beta= 0.70
     Davidson diagonalization with overlap
     ethr =  8.95E-06,  avg # of iterations =  7.0

     total cpu time spent up to now is      319.5 secs

     total energy              =    -306.93420360 Ry
     estimated scf accuracy    <       0.00137505 Ry

     iteration # 11     ecut=   110.00 Ry     beta= 0.70
     Davidson diagonalization with overlap
     c_bands:  1 eigenvalues not converged
     c_bands:  3 eigenvalues not converged
     c_bands:  1 eigenvalues not converged
     c_bands:  1 eigenvalues not converged
     c_bands:  1 eigenvalues not converged
     c_bands:  3 eigenvalues not converged
     c_bands:  4 eigenvalues not converged
     c_bands:  2 eigenvalues not converged
     c_bands:  1 eigenvalues not converged
     c_bands:  1 eigenvalues not converged
     c_bands:  1 eigenvalues not converged
     c_bands:  1 eigenvalues not converged
     c_bands:  2 eigenvalues not converged
     c_bands:  1 eigenvalues not converged
     ethr =  6.25E-06,  avg # of iterations = 17.2

     total cpu time spent up to now is      349.8 secs

     total energy              =    -306.89116159 Ry
     estimated scf accuracy    <       0.33480691 Ry

     iteration # 12     ecut=   110.00 Ry     beta= 0.70
     Davidson diagonalization with overlap
     ethr =  6.25E-06,  avg # of iterations = 12.4

     total cpu time spent up to now is      371.0 secs

     total energy              =    -306.87215762 Ry
     estimated scf accuracy    <       0.08748322 Ry

     iteration # 13     ecut=   110.00 Ry     beta= 0.70
     Davidson diagonalization with overlap
     ethr =  6.25E-06,  avg # of iterations = 11.0

     total cpu time spent up to now is      389.8 secs

     total energy              =    -306.88002390 Ry
     estimated scf accuracy    <       0.01074091 Ry

     iteration # 14     ecut=   110.00 Ry     beta= 0.70
     Davidson diagonalization with overlap
     ethr =  6.25E-06,  avg # of iterations =  1.4

     total cpu time spent up to now is      396.8 secs

     total energy              =    -306.87672649 Ry
     estimated scf accuracy    <       0.00997700 Ry

     iteration # 15     ecut=   110.00 Ry     beta= 0.70
     Davidson diagonalization with overlap
     ethr =  6.25E-06,  avg # of iterations =  6.2

     total cpu time spent up to now is      407.7 secs

     total energy              =    -306.87603134 Ry
     estimated scf accuracy    <       0.00240991 Ry

     iteration # 16     ecut=   110.00 Ry     beta= 0.70
     Davidson diagonalization with overlap
     ethr =  6.25E-06,  avg # of iterations =  5.9

     total cpu time spent up to now is      420.8 secs

     total energy              =    -306.87673606 Ry
     estimated scf accuracy    <       0.00000576 Ry

     iteration # 17     ecut=   110.00 Ry     beta= 0.70
     Davidson diagonalization with overlap
     c_bands:  1 eigenvalues not converged
     c_bands:  1 eigenvalues not converged
     c_bands:  1 eigenvalues not converged
     c_bands:  2 eigenvalues not converged
     c_bands:  1 eigenvalues not converged
     c_bands:  1 eigenvalues not converged
     c_bands:  1 eigenvalues not converged
     c_bands:  1 eigenvalues not converged
     c_bands:  2 eigenvalues not converged
     c_bands:  2 eigenvalues not converged
     c_bands:  1 eigenvalues not converged
     c_bands:  1 eigenvalues not converged
     c_bands:  2 eigenvalues not converged
     c_bands:  1 eigenvalues not converged
     c_bands:  1 eigenvalues not converged
     ethr =  2.62E-08,  avg # of iterations = 17.8

     total cpu time spent up to now is      451.4 secs

     total energy              =    -306.87695785 Ry
     estimated scf accuracy    <       0.00025447 Ry

     iteration # 18     ecut=   110.00 Ry     beta= 0.70
     Davidson diagonalization with overlap
     ethr =  2.62E-08,  avg # of iterations =  6.1

     total cpu time spent up to now is      462.4 secs

     total energy              =    -306.87693230 Ry
     estimated scf accuracy    <       0.00014893 Ry

     iteration # 19     ecut=   110.00 Ry     beta= 0.70
     Davidson diagonalization with overlap
     ethr =  2.62E-08,  avg # of iterations =  5.4

     total cpu time spent up to now is      472.7 secs

     total energy              =    -306.87694001 Ry
     estimated scf accuracy    <       0.00008078 Ry

     iteration # 20     ecut=   110.00 Ry     beta= 0.70
     Davidson diagonalization with overlap
     ethr =  2.62E-08,  avg # of iterations =  1.3

     total cpu time spent up to now is      479.7 secs

     total energy              =    -306.87692613 Ry
     estimated scf accuracy    <       0.00008778 Ry

     iteration # 21     ecut=   110.00 Ry     beta= 0.70
     Davidson diagonalization with overlap
     ethr =  2.62E-08,  avg # of iterations =  2.6

     total cpu time spent up to now is      487.2 secs

     total energy              =    -306.87689688 Ry
     estimated scf accuracy    <       0.00005944 Ry

     iteration # 22     ecut=   110.00 Ry     beta= 0.70
     Davidson diagonalization with overlap
     ethr =  2.62E-08,  avg # of iterations =  7.4

     total cpu time spent up to now is      499.4 secs

     total energy              =    -306.87690799 Ry
     estimated scf accuracy    <       0.00000141 Ry

     iteration # 23     ecut=   110.00 Ry     beta= 0.70
     Davidson diagonalization with overlap
     ethr =  6.41E-09,  avg # of iterations =  3.9

     total cpu time spent up to now is      507.8 secs

     total energy              =    -306.87690754 Ry
     estimated scf accuracy    <       0.00000167 Ry

     iteration # 24     ecut=   110.00 Ry     beta= 0.70
     Davidson diagonalization with overlap
     ethr =  6.41E-09,  avg # of iterations =  1.8

     total cpu time spent up to now is      515.1 secs

     total energy              =    -306.87690745 Ry
     estimated scf accuracy    <       0.00000043 Ry

     iteration # 25     ecut=   110.00 Ry     beta= 0.70
     Davidson diagonalization with overlap
     ethr =  1.95E-09,  avg # of iterations =  7.1

     total cpu time spent up to now is      526.7 secs

     total energy              =    -306.87690784 Ry
     estimated scf accuracy    <       0.00000002 Ry

     iteration # 26     ecut=   110.00 Ry     beta= 0.70
     Davidson diagonalization with overlap
     ethr =  9.88E-11,  avg # of iterations = 10.1

     total cpu time spent up to now is      542.7 secs

     total energy              =    -306.87690787 Ry
     estimated scf accuracy    <       0.00000005 Ry

     iteration # 27     ecut=   110.00 Ry     beta= 0.70
     Davidson diagonalization with overlap
     ethr =  9.88E-11,  avg # of iterations =  1.9

     total cpu time spent up to now is      550.3 secs

     total energy              =    -306.87690786 Ry
     estimated scf accuracy    <       0.00000002 Ry

     iteration # 28     ecut=   110.00 Ry     beta= 0.70
     Davidson diagonalization with overlap
     ethr =  8.63E-11,  avg # of iterations =  5.5

     total cpu time spent up to now is      560.6 secs

     End of self-consistent calculation

          k = 0.0000 0.0000 0.0000 (  6645 PWs)   bands (ev):

   -39.7496 -39.6762 -18.8605 -18.4920 -18.4920 -18.4272 -18.4272 -18.4077
     4.0196   7.4281   9.6958  10.7014  10.7014  10.8363  11.1266

          k =-0.0000-0.0000 0.0793 (  6615 PWs)   bands (ev):

   -39.7469 -39.6790 -18.8439 -18.4895 -18.4895 -18.4296 -18.4296 -18.4256
     4.1239   7.2836   9.6512  10.6557  10.6560  10.7698  11.0674

          k =-0.0000-0.0000 0.1586 (  6609 PWs)   bands (ev):

   -39.7390 -39.6870 -18.7962 -18.4825 -18.4825 -18.4762 -18.4367 -18.4367
     4.4295   6.8524   9.6344  10.5772  10.5892  10.5892  10.9244

          k =-0.0000-0.0000 0.2380 (  6580 PWs)   bands (ev):

   -39.7271 -39.6990 -18.7242 -18.5510 -18.4720 -18.4720 -18.4472 -18.4472
     4.9137   6.2195   9.7616  10.3040  10.5762  10.5763  10.7634

          k = 0.0000 0.0000-0.3173 (  6562 PWs)   bands (ev):

   -39.7130 -39.7130 -18.6382 -18.6382 -18.4596 -18.4596 -18.4596 -18.4596
     5.5343   5.5343  10.0085  10.0085  10.6372  10.6372  10.6372

          k =-0.0000 0.0970 0.0000 (  6592 PWs)   bands (ev):

   -39.7459 -39.6747 -18.8508 -18.5119 -18.4986 -18.4480 -18.4299 -18.4119
     4.1745   7.5605   9.5595  10.4245  10.8147  11.0014  11.0659

          k =-0.0000 0.0970 0.0793 (  6617 PWs)   bands (ev):

   -39.7432 -39.6774 -18.8351 -18.5090 -18.4960 -18.4570 -18.4325 -18.4226
     4.2772   7.4160   9.5174  10.4198  10.7563  10.8733  10.9969

          k =-0.0000 0.0970 0.1586 (  6590 PWs)   bands (ev):

   -39.7355 -39.6852 -18.7904 -18.5013 -18.4939 -18.4886 -18.4408 -18.4400
     4.5783   6.9827   9.5159  10.4249  10.5908  10.6785  11.0099

          k =-0.0000 0.0970 0.2380 (  6570 PWs)   bands (ev):

   -39.7240 -39.6968 -18.7229 -18.5618 -18.4876 -18.4775 -18.4566 -18.4512
     5.0558   6.3498   9.6657  10.2647  10.4727  10.6625  10.7301

          k =-0.0000 0.0970-0.3173 (  6582 PWs)   bands (ev):

   -39.7104 -39.7104 -18.6426 -18.6426 -18.4725 -18.4725 -18.4644 -18.4644
     5.6693   5.6693   9.9371   9.9371  10.5781  10.5785  10.7238

          k =-0.0000 0.1941 0.0000 (  6586 PWs)   bands (ev):

   -39.7355 -39.6708 -18.8230 -18.5667 -18.5163 -18.5039 -18.4380 -18.4244
     4.6233   7.9140   9.2476   9.9965  10.7685  11.1440  11.1704

          k =-0.0000 0.1941 0.0793 (  6595 PWs)   bands (ev):

   -39.7331 -39.6733 -18.8107 -18.5621 -18.5146 -18.5133 -18.4409 -18.4312
     4.7208   7.7713   9.2168  10.0163  10.7594  10.9055  10.9825

          k =-0.0000 0.1941 0.1586 (  6601 PWs)   bands (ev):

   -39.7261 -39.6803 -18.7759 -18.5552 -18.5404 -18.5049 -18.4495 -18.4492
     5.0069   7.3348   9.2574  10.0742  10.5250  10.7698  10.8882

          k =-0.0000 0.1941 0.2380 (  6572 PWs)   bands (ev):

   -39.7156 -39.6909 -18.7235 -18.6004 -18.5251 -18.4922 -18.4735 -18.4622
     5.4619   6.7086   9.4537  10.0629  10.3014  10.6143  10.8821

          k =-0.0000 0.1941-0.3173 (  6574 PWs)   bands (ev):

   -39.7033 -39.7033 -18.6617 -18.6617 -18.5000 -18.5000 -18.4772 -18.4772
     6.0495   6.0495   9.7553   9.7553  10.4245  10.4245  10.9575

          k =-0.0000 0.2911 0.0000 (  6590 PWs)   bands (ev):

   -39.7207 -39.6661 -18.7812 -18.6423 -18.5778 -18.5394 -18.4497 -18.4452
     5.3177   8.3217   8.9114   9.5606  10.5472  10.8277  10.9161

          k =-0.0000 0.2911 0.0793 (  6592 PWs)   bands (ev):

   -39.7187 -39.6682 -18.7774 -18.6327 -18.5881 -18.5361 -18.4532 -18.4487
     5.4047   8.1877   8.9081   9.5924  10.5147  10.7710  10.9297

          k =-0.0000 0.2911 0.1586 (  6582 PWs)   bands (ev):

   -39.7128 -39.6741 -18.7643 -18.6286 -18.5938 -18.5264 -18.4629 -18.4611
     5.6601   7.7664   9.0135   9.6715  10.3600  10.6610  10.9815

          k =-0.0000 0.2911 0.2380 (  6583 PWs)   bands (ev):

   -39.7039 -39.6830 -18.7399 -18.6648 -18.5589 -18.5119 -18.4850 -18.4776
     6.0666   7.1873   9.2430   9.7101  10.1969  10.4835  11.0870

          k =-0.0000 0.2911-0.3173 (  6600 PWs)   bands (ev):

   -39.6935 -39.6935 -18.7052 -18.7052 -18.5193 -18.5193 -18.4948 -18.4948
     6.5926   6.5926   9.5232   9.5232  10.2763  10.2763  11.2472

          k =-0.0000 0.3881 0.0000 (  6596 PWs)   bands (ev):

   -39.7047 -39.6625 -18.7321 -18.7186 -18.6493 -18.5619 -18.4733 -18.4621
     6.1682   8.4700   8.6374   9.2275  10.5795  10.5808  10.6958

          k =-0.0000 0.3881 0.0793 (  6583 PWs)   bands (ev):

   -39.7031 -39.6641 -18.7604 -18.6853 -18.6547 -18.5581 -18.4730 -18.4659
     6.2355   8.3423   8.6960   9.2701  10.4235  10.6677  10.7474

          k =-0.0000 0.3881 0.1586 (  6584 PWs)   bands (ev):

   -39.6986 -39.6687 -18.7787 -18.6988 -18.6185 -18.5474 -18.4771 -18.4768
     6.4325   8.0167   8.8579   9.3611  10.2714  10.6158  10.8987

          k =-0.0000 0.3881 0.2380 (  6574 PWs)   bands (ev):

   -39.6917 -39.6756 -18.7791 -18.7329 -18.5678 -18.5313 -18.4932 -18.4931
     6.7442   7.5889   9.0897   9.4159  10.1814  10.4392  11.1386

          k =-0.0000 0.3881-0.3173 (  6580 PWs)   bands (ev):

   -39.6836 -39.6836 -18.7624 -18.7624 -18.5241 -18.5241 -18.5122 -18.5122
     7.1438   7.1438   9.3166   9.3166  10.2471  10.2471  11.4462

          k =-0.0000 0.4852 0.0000 (  6568 PWs)   bands (ev):

   -39.6914 -39.6615 -18.7747 -18.7004 -18.6865 -18.5779 -18.5035 -18.4714
     7.0223   8.2968   8.4634   8.9856  10.4113  10.5494  10.8015

          k =-0.0000 0.4852 0.0793 (  6569 PWs)   bands (ev):

   -39.6903 -39.6626 -18.7909 -18.7162 -18.6583 -18.5739 -18.4994 -18.4755
     7.0511   8.2066   8.5641   9.0129  10.4194  10.6140  10.7526

          k =-0.0000 0.4852 0.1586 (  6562 PWs)   bands (ev):

   -39.6870 -39.6658 -18.8120 -18.7483 -18.6090 -18.5625 -18.4946 -18.4872
     7.1411   8.0157   8.7657   9.1095  10.4090  10.6257  10.8046

          k =-0.0000 0.4852 0.2380 (  6568 PWs)   bands (ev):

   -39.6822 -39.6707 -18.8190 -18.7827 -18.5607 -18.5453 -18.5045 -18.5007
     7.2970   7.7674   9.0077   9.2246  10.3473  10.4757  11.1105

          k =-0.0000 0.4852-0.3173 (  6568 PWs)   bands (ev):

   -39.6764 -39.6764 -18.8085 -18.8085 -18.5250 -18.5250 -18.5229 -18.5229
     7.5134   7.5134   9.2027   9.2027  10.3529  10.3529  11.5114

          k = 0.0000-0.5822-0.0000 (  6560 PWs)   bands (ev):

   -39.6858 -39.6618 -18.7952 -18.7188 -18.6651 -18.5838 -18.5192 -18.4749
     7.5318   8.0658   8.4042   8.8728  10.3511  10.4983  10.9043

          k = 0.0000-0.5822 0.0793 (  6552 PWs)   bands (ev):

   -39.6849 -39.6627 -18.8080 -18.7332 -18.6436 -18.5797 -18.5131 -18.4791
     7.5034   8.0456   8.5271   8.8627  10.4123  10.5665  10.8296

          k = 0.0000-0.5822 0.1586 (  6562 PWs)   bands (ev):

   -39.6823 -39.6653 -18.8274 -18.7661 -18.5996 -18.5680 -18.5037 -18.4910
     7.4767   7.9553   8.8113   8.9038  10.5192  10.6414  10.7680

          k = 0.0000-0.5822 0.2380 (  6558 PWs)   bands (ev):

   -39.6784 -39.6692 -18.8351 -18.8008 -18.5554 -18.5504 -18.5087 -18.5046
     7.5150   7.7945   9.0442   9.0935  10.4543  10.5300  11.0925

          k = 0.0000-0.5822-0.3173 (  6576 PWs)   bands (ev):

   -39.6738 -39.6738 -18.8258 -18.8258 -18.5296 -18.5296 -18.5219 -18.5219
     7.6291   7.6291   9.1737   9.1737  10.4353  10.4353  11.5208

          k = 0.0840 0.1455 0.0000 (  6593 PWs)   bands (ev):

   -39.7389 -39.6720 -18.8320 -18.5454 -18.5195 -18.4787 -18.4381 -18.4202
     4.4766   7.8058   9.3409  10.1123  10.8499  11.0522  11.1196

          k = 0.0840 0.1455 0.0793 (  6600 PWs)   bands (ev):

   -39.7363 -39.6746 -18.8185 -18.5413 -18.5188 -18.4877 -18.4409 -18.4275
     4.5759   7.6621   9.3055  10.1276  10.8590  10.8725  10.9390

          k = 0.0840 0.1455 0.1586 (  6598 PWs)   bands (ev):

   -39.7291 -39.6818 -18.7801 -18.5342 -18.5297 -18.4991 -18.4490 -18.4449
     4.8673   7.2257   9.3321  10.1767  10.5524  10.7948  10.8445

          k = 0.0840 0.1455 0.2380 (  6582 PWs)   bands (ev):

   -39.7183 -39.6927 -18.7224 -18.5867 -18.5122 -18.4915 -18.4655 -18.4609
     5.3305   6.5955   9.5160  10.1435  10.3338  10.6417  10.8278

          k = 0.0840 0.1455-0.3173 (  6582 PWs)   bands (ev):

   -39.7055 -39.7055 -18.6541 -18.6541 -18.4926 -18.4926 -18.4734 -18.4734
     5.9277   5.9277   9.8136   9.8136  10.4646  10.4646  10.8861

          k = 0.0840 0.2426 0.0000 (  6601 PWs)   bands (ev):

   -39.7263 -39.6677 -18.7971 -18.6054 -18.5684 -18.5163 -18.4520 -18.4370
     5.0504   8.2071   9.0365   9.6870  10.6169  10.8123  11.1154

          k = 0.0840 0.2426 0.0793 (  6592 PWs)   bands (ev):

   -39.7240 -39.6699 -18.7891 -18.5989 -18.5727 -18.5201 -18.4555 -18.4405
     5.1422   8.0684   9.0176   9.7156  10.6234  10.7394  11.0339

          k = 0.0840 0.2426 0.1586 (  6586 PWs)   bands (ev):

   -39.7177 -39.6763 -18.7659 -18.6002 -18.5733 -18.5211 -18.4652 -18.4524
     5.4115   7.6327   9.0963   9.7936  10.4342  10.6653  10.9804

          k = 0.0840 0.2426 0.2380 (  6584 PWs)   bands (ev):

   -39.7083 -39.6858 -18.7298 -18.6386 -18.5458 -18.5136 -18.4798 -18.4720
     5.8403   7.0239   9.3190   9.8391  10.2149  10.4969  11.0349

          k = 0.0840 0.2426-0.3173 (  6592 PWs)   bands (ev):

   -39.6971 -39.6971 -18.6852 -18.6852 -18.5170 -18.5170 -18.4879 -18.4879
     6.3958   6.3958   9.6167   9.6167  10.2927  10.2927  11.1455

          k = 0.0840 0.3396 0.0000 (  6581 PWs)   bands (ev):

   -39.7108 -39.6636 -18.7513 -18.6800 -18.6275 -18.5512 -18.4669 -18.4618
     5.8308   8.5213   8.7559   9.3054  10.5162  10.5526  10.8675

          k = 0.0840 0.3396 0.0793 (  6586 PWs)   bands (ev):

   -39.7090 -39.6654 -18.7587 -18.6651 -18.6314 -18.5511 -18.4724 -18.4602
     5.9083   8.3890   8.7838   9.3447  10.4122  10.6347  10.8463

          k = 0.0840 0.3396 0.1586 (  6591 PWs)   bands (ev):

   -39.7039 -39.6706 -18.7645 -18.6714 -18.6093 -18.5460 -18.4841 -18.4640
     6.1357   8.0002   8.9287   9.4383  10.2633  10.5851  10.9160

          k = 0.0840 0.3396 0.2380 (  6585 PWs)   bands (ev):

   -39.6963 -39.6782 -18.7569 -18.7034 -18.5673 -18.5338 -18.4995 -18.4788
     6.4968   7.4876   9.1614   9.5133  10.1258  10.3825  11.1134

          k = 0.0840 0.3396-0.3173 (  6586 PWs)   bands (ev):

   -39.6872 -39.6872 -18.7350 -18.7350 -18.5347 -18.5347 -18.5002 -18.5002
     6.9627   6.9627   9.4068   9.4068  10.1743  10.1743  11.3600

          k = 0.0840 0.4366 0.0000 (  6580 PWs)   bands (ev):

   -39.6959 -39.6615 -18.7460 -18.7027 -18.6792 -18.5781 -18.4922 -18.4798
     6.7023   8.4811   8.5521   9.0485  10.3870  10.6273  10.6946

          k = 0.0840 0.4366 0.0793 (  6579 PWs)   bands (ev):

   -39.6946 -39.6628 -18.7680 -18.7002 -18.6619 -18.5753 -18.4931 -18.4794
     6.7536   8.3589   8.6405   9.1002  10.3382  10.6170  10.7288

          k = 0.0840 0.4366 0.1586 (  6572 PWs)   bands (ev):

   -39.6909 -39.6666 -18.7903 -18.7270 -18.6158 -18.5638 -18.5026 -18.4780
     6.9040   8.1100   8.8152   9.2168  10.2342  10.5144  10.8761

          k = 0.0840 0.4366 0.2380 (  6576 PWs)   bands (ev):

   -39.6853 -39.6722 -18.7964 -18.7595 -18.5758 -18.5432 -18.5170 -18.4852
     7.1427   7.7878   9.0505   9.3144  10.1442  10.3240  11.1336

          k = 0.0840 0.4366-0.3173 (  6574 PWs)   bands (ev):

   -39.6787 -39.6787 -18.7850 -18.7850 -18.5484 -18.5484 -18.5050 -18.5050
     7.4488   7.4488   9.2626   9.2626  10.1628  10.1628  11.4712

          k = 0.0840 0.5337 0.0000 (  6567 PWs)   bands (ev):

   -39.6858 -39.6618 -18.7842 -18.7092 -18.6655 -18.5929 -18.5189 -18.4873
     7.4581   8.2299   8.4468   8.8679  10.3300  10.4601  10.8987

          k = 0.0840 0.5337 0.0793 (  6566 PWs)   bands (ev):

   -39.6849 -39.6627 -18.7969 -18.7242 -18.6458 -18.5867 -18.5151 -18.4888
     7.4573   8.1812   8.5575   8.8851  10.3492  10.4712  10.8807

          k = 0.0840 0.5337 0.1586 (  6565 PWs)   bands (ev):

   -39.6823 -39.6653 -18.8163 -18.7570 -18.6111 -18.5665 -18.5175 -18.4883
     7.4789   8.0592   8.7899   8.9890  10.3503  10.4236  10.9439

          k = 0.0840 0.5337 0.2380 (  6572 PWs)   bands (ev):

   -39.6784 -39.6692 -18.8242 -18.7911 -18.5819 -18.5389 -18.5295 -18.4903
     7.5564   7.8803   9.0366   9.1745  10.2306  10.3230  11.1907

          k = 0.0840 0.5337-0.3173 (  6554 PWs)   bands (ev):

   -39.6738 -39.6738 -18.8154 -18.8154 -18.5569 -18.5569 -18.5054 -18.5054
     7.6972   7.6972   9.2166   9.2166  10.2038  10.2038  11.5540

          k = 0.1681 0.2911 0.0000 (  6585 PWs)   bands (ev):

   -39.7129 -39.6641 -18.7580 -18.6468 -18.6387 -18.5383 -18.4777 -18.4579
     5.7161   8.5640   8.8154   9.3041  10.5027  10.5049  10.9615

          k = 0.1681 0.2911 0.0793 (  6579 PWs)   bands (ev):

   -39.7111 -39.6660 -18.7600 -18.6433 -18.6321 -18.5443 -18.4810 -18.4569
     5.7971   8.4280   8.8291   9.3392  10.4531  10.5553  10.9025

          k = 0.1681 0.2911 0.1586 (  6594 PWs)   bands (ev):

   -39.7058 -39.6713 -18.7587 -18.6606 -18.5978 -18.5508 -18.4901 -18.4602
     6.0350   8.0083   8.9668   9.4359  10.3030  10.5443  10.8905

          k = 0.1681 0.2911 0.2380 (  6586 PWs)   bands (ev):

   -39.6979 -39.6792 -18.7463 -18.6903 -18.5598 -18.5473 -18.5006 -18.4745
     6.4136   7.4595   9.2006   9.5382  10.1165  10.3378  11.0706

          k = 0.1681 0.2911-0.3173 (  6596 PWs)   bands (ev):

   -39.6886 -39.6886 -18.7219 -18.7219 -18.5415 -18.5415 -18.4960 -18.4960
     6.9038   6.9038   9.4520   9.4520  10.1269  10.1269  11.3024

          k = 0.1681 0.3881 0.0000 (  6571 PWs)   bands (ev):

   -39.6984 -39.6617 -18.7114 -18.7081 -18.6757 -18.5740 -18.5020 -18.4863
     6.5381   8.6442   8.7141   9.0038  10.2870  10.5984  10.7153

          k = 0.1681 0.3881 0.0793 (  6572 PWs)   bands (ev):

   -39.6970 -39.6631 -18.7431 -18.6985 -18.6501 -18.5795 -18.5068 -18.4796
     6.6015   8.5285   8.7740   9.0515  10.2523  10.6194  10.6624

          k = 0.1681 0.3881 0.1586 (  6567 PWs)   bands (ev):

   -39.6930 -39.6671 -18.7657 -18.7140 -18.6079 -18.5804 -18.5163 -18.4728
     6.7868   8.2445   8.9241   9.1656  10.1567  10.4266  10.7932

          k = 0.1681 0.3881 0.2380 (  6578 PWs)   bands (ev):

   -39.6871 -39.6730 -18.7718 -18.7391 -18.5855 -18.5642 -18.5185 -18.4779
     7.0791   7.8604   9.1349   9.2971  10.0254  10.1738  11.0301

          k = 0.1681 0.3881-0.3173 (  6574 PWs)   bands (ev):

   -39.6800 -39.6800 -18.7614 -18.7614 -18.5700 -18.5700 -18.4970 -18.4970
     7.4512   7.4512   9.3122   9.3122   9.9933   9.9933  11.3485

          k = 0.1681 0.4852 0.0000 (  6564 PWs)   bands (ev):

   -39.6859 -39.6617 -18.7552 -18.6929 -18.6662 -18.6086 -18.5183 -18.5181
     7.3676   8.5333   8.5420   8.8467  10.2061  10.4583  10.8642

          k = 0.1681 0.4852 0.0793 (  6571 PWs)   bands (ev):

   -39.6850 -39.6626 -18.7673 -18.7120 -18.6454 -18.6028 -18.5287 -18.5029
     7.4007   8.4354   8.6364   8.9186  10.1811  10.3930  10.8800

          k = 0.1681 0.4852 0.1586 (  6566 PWs)   bands (ev):

   -39.6824 -39.6652 -18.7873 -18.7406 -18.6298 -18.5751 -18.5382 -18.4874
     7.4987   8.2809   8.8066   9.0857  10.0950  10.2133  10.9642

          k = 0.1681 0.4852 0.2380 (  6570 PWs)   bands (ev):

   -39.6784 -39.6692 -18.7972 -18.7701 -18.6133 -18.5724 -18.5215 -18.4831
     7.6565   8.0796   9.0486   9.2644   9.9606   9.9763  11.1532

          k = 0.1681 0.4852-0.3173 (  6570 PWs)   bands (ev):

   -39.6738 -39.6738 -18.7911 -18.7911 -18.5924 -18.5924 -18.4952 -18.4952
     7.8594   7.8594   9.2743   9.2743   9.8601   9.8601  11.4455

          k = 0.1681 0.5822 0.0000 (  6562 PWs)   bands (ev):

   -39.6803 -39.6627 -18.7722 -18.6973 -18.6433 -18.6235 -18.5362 -18.5241
     7.8642   8.3251   8.5086   8.7524  10.2660  10.2750  10.9964

          k = 0.1681 0.5822 0.0793 (  6553 PWs)   bands (ev):

   -39.6797 -39.6634 -18.7818 -18.7131 -18.6485 -18.5978 -18.5421 -18.5130
     7.8486   8.3146   8.6119   8.7806  10.2306  10.2406  11.0068

          k = 0.1681 0.5822 0.1586 (  6559 PWs)   bands (ev):

   -39.6777 -39.6653 -18.7990 -18.7468 -18.6416 -18.5565 -18.5563 -18.4950
     7.8445   8.2533   8.8648   8.8977  10.1078  10.1251  11.0812

          k = 0.1681 0.5822 0.2380 (  6556 PWs)   bands (ev):

   -39.6749 -39.6682 -18.8081 -18.7800 -18.6239 -18.5769 -18.5190 -18.4863
     7.8943   8.1336   9.1113   9.1686   9.8832   9.9492  11.2621

          k = 0.1681 0.5822-0.3173 (  6570 PWs)   bands (ev):

   -39.6715 -39.6715 -18.8020 -18.8020 -18.6008 -18.6008 -18.4941 -18.4941
     7.9993   7.9993   9.3098   9.3098   9.7690   9.7690  11.5396

          k = 0.2521 0.4366 0.0000 (  6562 PWs)   bands (ev):

   -39.6860 -39.6617 -18.7304 -18.6969 -18.6666 -18.6075 -18.5411 -18.5177
     7.3354   8.5962   8.7379   8.7840  10.1251  10.4713  10.8301

          k = 0.2521 0.4366 0.0793 (  6577 PWs)   bands (ev):

   -39.6851 -39.6626 -18.7327 -18.7293 -18.6295 -18.6192 -18.5439 -18.5054
     7.3815   8.5347   8.7763   8.8645  10.1104  10.3630  10.8386

          k = 0.2521 0.4366 0.1586 (  6565 PWs)   bands (ev):

   -39.6824 -39.6652 -18.7610 -18.7431 -18.6317 -18.5922 -18.5437 -18.4874
     7.5145   8.4008   8.8903   9.0324  10.0454  10.1102  10.8919

          k = 0.2521 0.4366 0.2380 (  6567 PWs)   bands (ev):

   -39.6785 -39.6692 -18.7770 -18.7614 -18.6272 -18.5934 -18.5182 -18.4811
     7.7175   8.2035   9.0687   9.2184   9.8413   9.9069  11.0508

          k = 0.2521 0.4366-0.3173 (  6568 PWs)   bands (ev):

   -39.6738 -39.6738 -18.7759 -18.7759 -18.6111 -18.6111 -18.4920 -18.4920
     7.9612   7.9612   9.2493   9.2493   9.7588   9.7588  11.3430

          k = 0.2521 0.5337 0.0000 (  6563 PWs)   bands (ev):

   -39.6765 -39.6640 -18.7472 -18.6845 -18.6455 -18.6265 -18.5658 -18.5501
     8.0242   8.5607   8.5889   8.6821  10.1020  10.2408  11.0606

          k = 0.2521 0.5337 0.0793 (  6557 PWs)   bands (ev):

   -39.6760 -39.6644 -18.7506 -18.7062 -18.6632 -18.5972 -18.5709 -18.5310
     8.0501   8.5269   8.6355   8.7696  10.0629  10.1426  11.0632

          k = 0.2521 0.5337 0.1586 (  6561 PWs)   bands (ev):

   -39.6746 -39.6658 -18.7648 -18.7365 -18.6740 -18.5949 -18.5444 -18.5035
     8.1222   8.4833   8.7689   8.9604   9.8902   9.9459  11.0957

          k = 0.2521 0.5337 0.2380 (  6558 PWs)   bands (ev):

   -39.6726 -39.6678 -18.7788 -18.7634 -18.6626 -18.6158 -18.5092 -18.4872
     8.2251   8.4238   8.9850   9.2090   9.5805   9.7412  11.2094

          k = 0.2521 0.5337-0.3173 (  6552 PWs)   bands (ev):

   -39.6702 -39.6702 -18.7791 -18.7791 -18.6403 -18.6403 -18.4888 -18.4888
     8.3343   8.3343   9.2640   9.2640   9.4840   9.4840  11.4446

          k = 0.3361 0.5822 0.0000 (  6546 PWs)   bands (ev):

   -39.6689 -39.6689 -18.7371 -18.6686 -18.6686 -18.5935 -18.5869 -18.5869
     8.4678   8.4678   8.5675   8.6216  10.1037  10.1037  11.1588

          k = 0.3361 0.5822 0.0793 (  6582 PWs)   bands (ev):

   -39.6689 -39.6689 -18.7317 -18.6931 -18.6931 -18.5991 -18.5620 -18.5620
     8.5140   8.5140   8.5866   8.6428  10.0248  10.0248  11.1561

          k = 0.3361 0.5822 0.1586 (  6555 PWs)   bands (ev):

   -39.6689 -39.6689 -18.7303 -18.7303 -18.7163 -18.6148 -18.5241 -18.5241
     8.6369   8.6454   8.6454   8.6927   9.8216   9.8216  11.1700

          k = 0.3361 0.5822 0.2380 (  6555 PWs)   bands (ev):

   -39.6689 -39.6689 -18.7571 -18.7571 -18.6932 -18.6383 -18.4965 -18.4965
     8.6978   8.7360   8.8334   8.8334   9.5698   9.5698  11.2551

          k = 0.3361 0.5822-0.3173 (  6540 PWs)   bands (ev):

   -39.6689 -39.6689 -18.7667 -18.7667 -18.6658 -18.6658 -18.4867 -18.4867
     8.7391   8.7391   8.9614   8.9614   9.4174   9.4174  11.4640

     the Fermi energy is     9.1311 ev

!    total energy              =    -306.87690787 Ry
     total all-electron energy =     -3050.017679 Ry
     estimated scf accuracy    <          3.2E-10 Ry
     smearing contrib. (-TS)   =      -0.00101274 Ry
     internal energy E=F+TS    =    -306.87589513 Ry

     The total energy is F=E-TS. E is the sum of the following terms:
     one-electron contribution =     -72.60711562 Ry
     hartree contribution      =      41.70584708 Ry
     xc contribution           =     -34.56411811 Ry
     ewald contribution        =    -127.65357888 Ry
     one-center paw contrib.   =    -113.75692960 Ry

     convergence has been achieved in  28 iterations

     Forces acting on atoms (cartesian axes, Ry/au):

     atom    1 type  1   force =    -0.00000000    0.00000000    0.00000000
     atom    2 type  1   force =     0.00000000   -0.00000000   -0.00000000
     The non-local contrib.  to forces
     atom    1 type  1   force =     0.00000000    0.00000000    0.00000000
     atom    2 type  1   force =     0.00000000   -0.00000000   -0.00000000
     The ionic contribution  to forces
     atom    1 type  1   force =     0.00000000   -0.00000000   -0.00000000
     atom    2 type  1   force =    -0.00000000    0.00000000    0.00000000
     The local contribution  to forces
     atom    1 type  1   force =     0.00000000    0.00000000    0.00000000
     atom    2 type  1   force =    -0.00000000    0.00000000    0.00000000
     The core correction contribution to forces
     atom    1 type  1   force =    -0.00000000   -0.00000000    0.00000000
     atom    2 type  1   force =     0.00000000   -0.00000000   -0.00000000
     The Hubbard contrib.    to forces
     atom    1 type  1   force =     0.00000000    0.00000000    0.00000000
     atom    2 type  1   force =     0.00000000    0.00000000    0.00000000
     The SCF correction term to forces
     atom    1 type  1   force =    -0.00000000    0.00000000    0.00000000
     atom    2 type  1   force =    -0.00000000    0.00000000   -0.00000000

     Total force =     0.000000     Total SCF correction =     0.000000


     Computing stress (Cartesian axis) and pressure

          total   stress  (Ry/bohr**3)                   (kbar)     P=      -42.33
  -0.00024858   0.00000000  -0.00000000          -36.57        0.00       -0.00
   0.00000000  -0.00024858  -0.00000000            0.00      -36.57       -0.00
  -0.00000000  -0.00000000  -0.00036616           -0.00       -0.00      -53.86

     Energy error            =      3.2E-03 Ry
     Gradient error          =      6.3E-28 Ry/Bohr
     Cell gradient error     =      5.4E+01 kbar

     number of scf cycles    =   2
     number of bfgs steps    =   1

     enthalpy           old  =    -306.8737331566 Ry
     enthalpy           new  =    -306.8769078699 Ry

     CASE: enthalpy          _new < enthalpy          _old

     new trust radius        =       0.0623210452 bohr
     new conv_thr            =            1.0E-10 Ry

     new unit-cell volume =    315.07745 a.u.^3 (    46.68966 Ang^3 )
     density =      3.17215 g/cm^3

CELL_PARAMETERS (alat=  6.25310370)
   0.980165368   0.000000000  -0.000000000
  -0.490082684   0.848848109  -0.000000000
  -0.000000000  -0.000000000   1.548820509

ATOMIC_POSITIONS (crystal)
Sc           -0.0000000000       -0.0000000000        0.0000000000
Sc            0.6666666667        0.3333333333        0.5000000000



     Writing config-only to output data dir sc_vcrelax.out/scandium.save/
     NEW-OLD atomic charge density approx. for the potential

     Check: negative core charge=   -0.000007
     extrapolated charge   21.08610, renormalised to   22.00000

     total cpu time spent up to now is      569.8 secs

     Self-consistent Calculation

     iteration #  1     ecut=   110.00 Ry     beta= 0.70
     Davidson diagonalization with overlap
     c_bands:  2 eigenvalues not converged
     c_bands:  2 eigenvalues not converged
     c_bands:  2 eigenvalues not converged
     c_bands:  2 eigenvalues not converged
     c_bands:  3 eigenvalues not converged
     c_bands:  3 eigenvalues not converged
     c_bands:  4 eigenvalues not converged
     c_bands:  3 eigenvalues not converged
     c_bands:  2 eigenvalues not converged
     c_bands:  2 eigenvalues not converged
     c_bands:  3 eigenvalues not converged
     c_bands:  2 eigenvalues not converged
     c_bands:  2 eigenvalues not converged
     c_bands:  2 eigenvalues not converged
     c_bands:  4 eigenvalues not converged
     c_bands:  5 eigenvalues not converged
[...]
     7.1124   9.2184   9.5641  10.1510  11.5002  11.6510  11.8004

          k =-0.0000 0.3947 0.1659 (  5893 PWs)   bands (ev):

   -38.5719 -38.5259 -17.7312 -17.6115 -17.5043 -17.4298 -17.3266 -17.3189
     7.3169   8.9382   9.7046  10.2618  11.3239  11.7376  11.8224

          k =-0.0000 0.3947 0.2488 (  5922 PWs)   bands (ev):

   -38.5613 -38.5365 -17.7308 -17.6624 -17.4356 -17.4063 -17.3505 -17.3368
     7.6402   8.5106   9.9687  10.3390  11.2158  11.5213  12.0952

          k =-0.0000 0.3947-0.3317 (  5916 PWs)   bands (ev):

   -38.5489 -38.5489 -17.7060 -17.7060 -17.3785 -17.3785 -17.3767 -17.3767
     8.0535   8.0535  10.2340  10.2340  11.2887  11.2887  12.4469

          k =-0.0000 0.4933-0.0000 (  5916 PWs)   bands (ev):

   -38.5630 -38.5169 -17.7027 -17.6146 -17.5943 -17.4709 -17.3642 -17.3152
     7.8957   9.0853   9.3291   9.8803  11.4322  11.5267  11.9672

          k =-0.0000 0.4933 0.0829 (  5924 PWs)   bands (ev):

   -38.5612 -38.5186 -17.7319 -17.6219 -17.5664 -17.4651 -17.3550 -17.3212
     7.9172   9.0289   9.4187   9.9078  11.5062  11.5334  11.9086

          k =-0.0000 0.4933 0.1659 (  5923 PWs)   bands (ev):

   -38.5562 -38.5236 -17.7652 -17.6707 -17.4952 -17.4484 -17.3426 -17.3383
     7.9925   8.8639   9.6330  10.0273  11.5099  11.7247  11.7586

          k =-0.0000 0.4933 0.2488 (  5921 PWs)   bands (ev):

   -38.5487 -38.5311 -17.7759 -17.7225 -17.4271 -17.4233 -17.3637 -17.3467
     8.1382   8.6158   9.9112  10.1806  11.4173  11.5846  12.0759

          k =-0.0000 0.4933-0.3317 (  5932 PWs)   bands (ev):

   -38.5399 -38.5399 -17.7606 -17.7606 -17.3936 -17.3936 -17.3752 -17.3752
     8.3549   8.3549  10.1518  10.1518  11.4277  11.4277  12.5373

          k = 0.0000-0.5920 0.0000 (  5936 PWs)   bands (ev):

   -38.5550 -38.5182 -17.7275 -17.6161 -17.5858 -17.4781 -17.3864 -17.3190
     8.3884   8.8644   9.2467   9.7790  11.3763  11.4780  12.0861

          k = 0.0000-0.5920 0.0829 (  5920 PWs)   bands (ev):

   -38.5536 -38.5196 -17.7503 -17.6400 -17.5507 -17.4721 -17.3738 -17.3251
     8.3395   8.8570   9.4036   9.7546  11.4547  11.5474  11.9936

          k = 0.0000-0.5920 0.1659 (  5906 PWs)   bands (ev):

   -38.5496 -38.5236 -17.7819 -17.6918 -17.4845 -17.4551 -17.3547 -17.3426
     8.2867   8.7849   9.7498   9.7815  11.6670  11.6863  11.7612

          k = 0.0000-0.5920 0.2488 (  5936 PWs)   bands (ev):

   -38.5436 -38.5295 -17.7943 -17.7442 -17.4295 -17.4207 -17.3686 -17.3518
     8.3161   8.6190   9.9485  10.0756  11.5352  11.6694  12.0600

          k = 0.0000-0.5920-0.3317 (  5916 PWs)   bands (ev):

   -38.5366 -38.5366 -17.7811 -17.7811 -17.3991 -17.3991 -17.3740 -17.3740
     8.4381   8.4381  10.1333  10.1333  11.5342  11.5342  12.5549

          k = 0.0854 0.1480-0.0000 (  5909 PWs)   bands (ev):

   -38.6275 -38.5247 -17.8076 -17.4269 -17.3965 -17.3319 -17.2799 -17.2448
     5.2936   8.6634  10.5286  11.0430  11.9187  12.0673  12.0841

          k = 0.0854 0.1480 0.0829 (  5912 PWs)   bands (ev):

   -38.6236 -38.5286 -17.7896 -17.4208 -17.3942 -17.3457 -17.2842 -17.2547
     5.4038   8.5635  10.4242  11.0544  11.8948  11.9252  11.9568

          k = 0.0854 0.1480 0.1659 (  5917 PWs)   bands (ev):

   -38.6126 -38.5399 -17.7382 -17.4077 -17.4035 -17.3681 -17.2961 -17.2793
     5.7263   8.1993  10.3367  11.0931  11.6274  11.7672  11.8978

          k = 0.0854 0.1480 0.2488 (  5908 PWs)   bands (ev):

   -38.5960 -38.5566 -17.6608 -17.4779 -17.3774 -17.3568 -17.3137 -17.3101
     6.2347   7.5829  10.4723  11.0751  11.3817  11.6690  11.7837

          k = 0.0854 0.1480-0.3317 (  5910 PWs)   bands (ev):

   -38.5764 -38.5764 -17.5690 -17.5690 -17.3487 -17.3487 -17.3315 -17.3315
     6.8812   6.8812  10.7727  10.7727  11.4784  11.4785  11.8392

          k = 0.0854 0.2467-0.0000 (  5908 PWs)   bands (ev):

   -38.6106 -38.5205 -17.7617 -17.4984 -17.4500 -17.3834 -17.2953 -17.2693
     5.8932   9.0574  10.1128  10.5706  11.6994  11.7720  12.1058

          k = 0.0854 0.2467 0.0829 (  5913 PWs)   bands (ev):

   -38.6072 -38.5240 -17.7513 -17.4888 -17.4538 -17.3920 -17.3004 -17.2727
     5.9939   8.9770  10.0237  10.6010  11.6650  11.7850  12.0024

          k = 0.0854 0.2467 0.1659 (  5905 PWs)   bands (ev):

   -38.5975 -38.5338 -17.7208 -17.4913 -17.4517 -17.3962 -17.3143 -17.2871
     6.2886   8.6206  10.0047  10.6838  11.4648  11.7651  11.9205

          k = 0.0854 0.2467 0.2488 (  5914 PWs)   bands (ev):

   -38.5829 -38.5485 -17.6726 -17.5464 -17.4123 -17.3830 -17.3342 -17.3152
     6.7550   8.0147  10.2101  10.7354  11.2489  11.5574  11.9878

          k = 0.0854 0.2467-0.3317 (  5912 PWs)   bands (ev):

   -38.5657 -38.5657 -17.6117 -17.6117 -17.3753 -17.3753 -17.3454 -17.3454
     7.3527   7.3527  10.5225  10.5225  11.3218  11.3218  12.1159

          k = 0.0854 0.3453-0.0000 (  5907 PWs)   bands (ev):

   -38.5896 -38.5171 -17.7011 -17.5883 -17.5141 -17.4321 -17.3117 -17.3051
     6.7000   9.3445   9.7255  10.1657  11.5196  11.6310  11.8697

          k = 0.0854 0.3453 0.0829 (  5915 PWs)   bands (ev):

   -38.5869 -38.5199 -17.7100 -17.5689 -17.5198 -17.4341 -17.3191 -17.3008
     6.7829   9.2948   9.6762  10.2122  11.4354  11.7075  11.8320

          k = 0.0854 0.3453 0.1659 (  5908 PWs)   bands (ev):

   -38.5790 -38.5277 -17.7169 -17.5790 -17.4922 -17.4272 -17.3356 -17.3025
     7.0255   8.9659   9.7764  10.3212  11.2845  11.6829  11.8678

          k = 0.0854 0.3453 0.2488 (  5906 PWs)   bands (ev):

   -38.5673 -38.5395 -17.7053 -17.6269 -17.4376 -17.4057 -17.3574 -17.3211
     7.4090   8.4474  10.0325  10.4152  11.1402  11.4397  12.0859

          k = 0.0854 0.3453-0.3317 (  5914 PWs)   bands (ev):

   -38.5534 -38.5534 -17.6734 -17.6734 -17.3995 -17.3995 -17.3543 -17.3543
     7.9003   7.9003  10.3082  10.3082  11.1952  11.1952  12.3595

          k = 0.0854 0.4440-0.0000 (  5916 PWs)   bands (ev):

   -38.5692 -38.5163 -17.6682 -17.6362 -17.5715 -17.4687 -17.3484 -17.3257
     7.5839   9.2765   9.4388   9.9225  11.3675  11.6369  11.8429

          k = 0.0854 0.4440 0.0829 (  5908 PWs)   bands (ev):

   -38.5672 -38.5183 -17.7080 -17.6103 -17.5629 -17.4653 -17.3456 -17.3263
     7.6339   9.2158   9.4783   9.9833  11.3584  11.6081  11.8484

          k = 0.0854 0.4440 0.1659 (  5913 PWs)   bands (ev):

   -38.5615 -38.5241 -17.7413 -17.6464 -17.5043 -17.4471 -17.3569 -17.3217
     7.7818   8.9930   9.6595  10.1267  11.2746  11.5640  11.8946

          k = 0.0854 0.4440 0.2488 (  5919 PWs)   bands (ev):

   -38.5529 -38.5327 -17.7499 -17.6951 -17.4546 -17.4111 -17.3777 -17.3286
     8.0196   8.6719   9.9382  10.2561  11.1696  11.3736  12.1364

          k = 0.0854 0.4440-0.3317 (  5914 PWs)   bands (ev):

   -38.5428 -38.5428 -17.7330 -17.7330 -17.4194 -17.4194 -17.3559 -17.3559
     8.3283   8.3283  10.1982  10.1982  11.1870  11.1870  12.5068

          k = 0.0854 0.5426-0.0000 (  5927 PWs)   bands (ev):

   -38.5551 -38.5181 -17.7144 -17.6052 -17.5863 -17.4882 -17.3858 -17.3340
     8.3245   9.0292   9.2879   9.7621  11.3215  11.4729  12.0732

          k = 0.0854 0.5426 0.0829 (  5923 PWs)   bands (ev):

   -38.5537 -38.5195 -17.7371 -17.6306 -17.5537 -17.4789 -17.3760 -17.3370
     8.3092   8.9984   9.4165   9.7730  11.3569  11.4925  12.0256

          k = 0.0854 0.5426 0.1659 (  5915 PWs)   bands (ev):

   -38.5497 -38.5235 -17.7686 -17.6817 -17.5047 -17.4462 -17.3749 -17.3357
     8.3077   8.8973   9.6755   9.8993  11.3696  11.5053  12.0003

          k = 0.0854 0.5426 0.2488 (  5919 PWs)   bands (ev):

   -38.5437 -38.5295 -17.7813 -17.7330 -17.4660 -17.4034 -17.3915 -17.3352
     8.3745   8.7150   9.9464  10.1433  11.2451  11.4165  12.2178

          k = 0.0854 0.5426-0.3317 (  5930 PWs)   bands (ev):

   -38.5366 -38.5366 -17.7689 -17.7689 -17.4310 -17.4310 -17.3549 -17.3549
     8.5197   8.5197  10.1766  10.1766  11.2490  11.2491  12.6162

          k = 0.1709 0.2960-0.0000 (  5902 PWs)   bands (ev):

   -38.5926 -38.5174 -17.7099 -17.5454 -17.5364 -17.4108 -17.3250 -17.2995
     6.5836   9.3994   9.8022  10.1553  11.4528  11.6053  11.9724

          k = 0.1709 0.2960 0.0829 (  5899 PWs)   bands (ev):

   -38.5897 -38.5203 -17.7125 -17.5421 -17.5251 -17.4218 -17.3301 -17.2957
     6.6710   9.3536   9.7307  10.1952  11.4194  11.6598  11.8940

          k = 0.1709 0.2960 0.1659 (  5904 PWs)   bands (ev):

   -38.5816 -38.5285 -17.7107 -17.5669 -17.4774 -17.4327 -17.3441 -17.2966
     6.9270   8.9973   9.8141  10.3062  11.2965  11.6434  11.8565

          k = 0.1709 0.2960 0.2488 (  5911 PWs)   bands (ev):

   -38.5695 -38.5407 -17.6930 -17.6112 -17.4255 -17.4251 -17.3599 -17.3144
     7.3323   8.4369  10.0679  10.4274  11.1185  11.3824  12.0577

          k = 0.1709 0.2960-0.3317 (  5918 PWs)   bands (ev):

   -38.5551 -38.5551 -17.6579 -17.6579 -17.4099 -17.4099 -17.3470 -17.3470
     7.8531   7.8531  10.3448  10.3448  11.1364  11.1364  12.3060

          k = 0.1709 0.3947-0.0000 (  5906 PWs)   bands (ev):

   -38.5726 -38.5162 -17.6479 -17.6219 -17.5761 -17.4556 -17.3529 -17.3400
     7.4255   9.5286   9.5454   9.8461  11.2443  11.7301  11.7395

          k = 0.1709 0.3947 0.0829 (  5903 PWs)   bands (ev):

   -38.5705 -38.5183 -17.6835 -17.6111 -17.5458 -17.4665 -17.3601 -17.3273
     7.4913   9.4374   9.5936   9.9052  11.2268  11.6460  11.7613

          k = 0.1709 0.3947 0.1659 (  5908 PWs)   bands (ev):

   -38.5644 -38.5244 -17.7141 -17.6330 -17.4937 -17.4649 -17.3747 -17.3134
     7.6833   9.1651   9.7677  10.0425  11.1502  11.4497  11.8449

          k = 0.1709 0.3947 0.2488 (  5907 PWs)   bands (ev):

   -38.5552 -38.5336 -17.7216 -17.6715 -17.4713 -17.4338 -17.3776 -17.3176
     7.9851   8.7830  10.0174  10.2029  11.0156  11.1774  12.0625

          k = 0.1709 0.3947-0.3317 (  5908 PWs)   bands (ev):

   -38.5444 -38.5444 -17.7055 -17.7055 -17.4475 -17.4475 -17.3436 -17.3436
     8.3672   8.3672  10.2283  10.2283  10.9749  10.9749  12.3952

          k = 0.1709 0.4933-0.0000 (  5917 PWs)   bands (ev):

   -38.5553 -38.5180 -17.6803 -17.5909 -17.5874 -17.5016 -17.3847 -17.3713
     8.2536   9.3385   9.3792   9.7103  11.1746  11.4937  12.0239

          k = 0.1709 0.4933 0.0829 (  5914 PWs)   bands (ev):

   -38.5539 -38.5194 -17.7017 -17.6248 -17.5488 -17.4948 -17.3882 -17.3574
     8.2817   9.2770   9.4551   9.7910  11.1679  11.4167  12.0193

          k = 0.1709 0.4933 0.1659 (  5914 PWs)   bands (ev):

   -38.5498 -38.5234 -17.7341 -17.6655 -17.5309 -17.4500 -17.4009 -17.3328
     8.3690   9.1365   9.6518   9.9906  11.1046  11.2226  12.0568

          k = 0.1709 0.4933 0.2488 (  5917 PWs)   bands (ev):

   -38.5437 -38.5295 -17.7494 -17.7096 -17.5071 -17.4457 -17.3769 -17.3240
     8.5177   8.9380   9.9436  10.2182  10.9323  10.9881  12.2229

          k = 0.1709 0.4933-0.3317 (  5934 PWs)   bands (ev):

   -38.5366 -38.5366 -17.7407 -17.7407 -17.4759 -17.4759 -17.3395 -17.3395
     8.7173   8.7173  10.2302  10.2302  10.8319  10.8319  12.5293

          k = 0.1709 0.5920-0.0000 (  5928 PWs)   bands (ev):

   -38.5473 -38.5203 -17.7014 -17.5921 -17.5564 -17.5230 -17.4099 -17.3778
     8.7264   9.1519   9.3219   9.6247  11.1982  11.3563  12.1722

          k = 0.1709 0.5920 0.0829 (  5918 PWs)   bands (ev):

   -38.5463 -38.5213 -17.7179 -17.6187 -17.5607 -17.4865 -17.4072 -17.3687
     8.6927   9.1537   9.4568   9.6449  11.1796  11.3160  12.1589

          k = 0.1709 0.5920 0.1659 (  5916 PWs)   bands (ev):

   -38.5433 -38.5242 -17.7464 -17.6719 -17.5479 -17.4265 -17.4226 -17.3427
     8.6677   9.1056   9.7623   9.7700  11.0733  11.1968  12.1851

          k = 0.1709 0.5920 0.2488 (  5917 PWs)   bands (ev):

   -38.5389 -38.5286 -17.7616 -17.7216 -17.5207 -17.4517 -17.3726 -17.3281
     8.7128   8.9773  10.0115  10.1387  10.8412  10.9921  12.3460

          k = 0.1709 0.5920-0.3317 (  5924 PWs)   bands (ev):

   -38.5337 -38.5337 -17.7535 -17.7535 -17.4865 -17.4865 -17.3378 -17.3378
     8.8271   8.8271  10.2807  10.2807  10.7453  10.7453  12.6420

          k = 0.2563 0.4440-0.0000 (  5914 PWs)   bands (ev):

   -38.5554 -38.5179 -17.6514 -17.6015 -17.5879 -17.4940 -17.3983 -17.3842
     8.2307   9.4306   9.5662   9.6106  11.0927  11.5079  11.9831

          k = 0.2563 0.4440 0.0829 (  5920 PWs)   bands (ev):

   -38.5539 -38.5193 -17.6587 -17.6541 -17.5232 -17.5148 -17.4033 -17.3626
     8.2770   9.3687   9.6106   9.7123  11.0863  11.3836  11.9813

          k = 0.2563 0.4440 0.1659 (  5920 PWs)   bands (ev):

   -38.5499 -38.5234 -17.7044 -17.6701 -17.5345 -17.4667 -17.4072 -17.3325
     8.4094   9.2497   9.7440   9.9199  11.0351  11.0989  12.0030

          k = 0.2563 0.4440 0.2488 (  5911 PWs)   bands (ev):

   -38.5438 -38.5294 -17.7265 -17.7000 -17.5251 -17.4702 -17.3714 -17.3207
     8.6094   9.0729   9.9579  10.1533  10.7917  10.8908  12.1350

          k = 0.2563 0.4440-0.3317 (  5914 PWs)   bands (ev):

   -38.5366 -38.5366 -17.7235 -17.7235 -17.4986 -17.4986 -17.3345 -17.3345
     8.8453   8.8453  10.1876  10.1876  10.7068  10.7068  12.4324

          k = 0.2563 0.5426-0.0000 (  5929 PWs)   bands (ev):

   -38.5418 -38.5225 -17.6741 -17.5840 -17.5408 -17.5337 -17.4292 -17.4263
     8.9007   9.3778   9.3998   9.5260  11.0843  11.2844  12.2370

          k = 0.2563 0.5426 0.0829 (  5928 PWs)   bands (ev):

   -38.5410 -38.5232 -17.6795 -17.6222 -17.5708 -17.4823 -17.4366 -17.3960
     8.9219   9.3549   9.4589   9.6161  11.0509  11.1758  12.2269

          k = 0.2563 0.5426 0.1659 (  5928 PWs)   bands (ev):

   -38.5389 -38.5253 -17.7042 -17.6651 -17.5875 -17.4670 -17.4080 -17.3536
     8.9843   9.3257   9.6197   9.8339  10.9019  10.9384  12.2309

          k = 0.2563 0.5426 0.2488 (  5925 PWs)   bands (ev):

   -38.5358 -38.5284 -17.7271 -17.7051 -17.5679 -17.4972 -17.3579 -17.3283
     9.0799   9.2735   9.8775  10.1242  10.5593  10.7265  12.3239

          k = 0.2563 0.5426-0.3317 (  5912 PWs)   bands (ev):

   -38.5321 -38.5321 -17.7282 -17.7282 -17.5338 -17.5338 -17.3294 -17.3294
     9.1863   9.1863  10.2016  10.2016  10.4414  10.4414  12.5652

          k = 0.3418 0.5920-0.0000 (  5946 PWs)   bands (ev):

   -38.5305 -38.5305 -17.6661 -17.5662 -17.5662 -17.4798 -17.4798 -17.4565
     9.3200   9.3200   9.3872   9.4238  11.1235  11.1235  12.3471

          k = 0.3418 0.5920 0.0829 (  5943 PWs)   bands (ev):

   -38.5305 -38.5305 -17.6583 -17.6073 -17.6073 -17.4647 -17.4381 -17.4381
     9.3713   9.3713   9.4178   9.4450  11.0400  11.0400  12.3347

          k = 0.3418 0.5920 0.1659 (  5961 PWs)   bands (ev):

   -38.5305 -38.5305 -17.6632 -17.6632 -17.6359 -17.4878 -17.3808 -17.3808
     9.4931   9.5001   9.5161   9.5161  10.8251  10.8251  12.3253

          k = 0.3418 0.5920 0.2488 (  5904 PWs)   bands (ev):

   -38.5304 -38.5304 -17.7022 -17.7022 -17.6023 -17.5221 -17.3404 -17.3404
     9.5631   9.5682   9.7189   9.7189  10.5610  10.5610  12.3899

          k = 0.3418 0.5920-0.3317 (  5904 PWs)   bands (ev):

   -38.5304 -38.5304 -17.7160 -17.7160 -17.5624 -17.5624 -17.3260 -17.3260
     9.5954   9.5954   9.8503   9.8503  10.4064  10.4064  12.6012

     the Fermi energy is    10.0414 ev

!    total energy              =    -306.88092271 Ry
     total all-electron energy =     -3050.021693 Ry
     estimated scf accuracy    <          5.6E-13 Ry
     smearing contrib. (-TS)   =      -0.00077316 Ry
     internal energy E=F+TS    =    -306.88014955 Ry

     The total energy is F=E-TS. E is the sum of the following terms:
     one-electron contribution =     -67.61340778 Ry
     hartree contribution      =      40.12937878 Ry
     xc contribution           =     -34.67075970 Ry
     ewald contribution        =    -130.96905912 Ry
     one-center paw contrib.   =    -113.75630173 Ry

     convergence has been achieved in  18 iterations

     Forces acting on atoms (cartesian axes, Ry/au):

     atom    1 type  1   force =     0.00000000   -0.00000000    0.00000000
     atom    2 type  1   force =    -0.00000000    0.00000000   -0.00000000
     The non-local contrib.  to forces
     atom    1 type  1   force =     0.00000000    0.00000000    0.00000000
     atom    2 type  1   force =     0.00000000   -0.00000000    0.00000000
     The ionic contribution  to forces
     atom    1 type  1   force =     0.00000000   -0.00000000   -0.00000000
     atom    2 type  1   force =    -0.00000000    0.00000000    0.00000000
     The local contribution  to forces
     atom    1 type  1   force =    -0.00000000   -0.00000000    0.00000000
     atom    2 type  1   force =    -0.00000000    0.00000000    0.00000000
     The core correction contribution to forces
     atom    1 type  1   force =    -0.00000000   -0.00000000   -0.00000000
     atom    2 type  1   force =     0.00000000   -0.00000000   -0.00000000
     The Hubbard contrib.    to forces
     atom    1 type  1   force =     0.00000000    0.00000000    0.00000000
     atom    2 type  1   force =     0.00000000    0.00000000    0.00000000
     The SCF correction term to forces
     atom    1 type  1   force =    -0.00000000   -0.00000000   -0.00000000
     atom    2 type  1   force =    -0.00000000    0.00000000   -0.00000000

     Total force =     0.000000     Total SCF correction =     0.000000


     Computing stress (Cartesian axis) and pressure

          total   stress  (Ry/bohr**3)                   (kbar)     P=       -0.37
  -0.00000244   0.00000000   0.00000000           -0.36        0.00        0.00
   0.00000000  -0.00000244  -0.00000000            0.00       -0.36       -0.00
   0.00000000  -0.00000000  -0.00000256            0.00       -0.00       -0.38


     Writing all to output data dir sc_vcrelax.out/scandium.save/

     init_run     :      9.59s CPU      9.70s WALL (       2 calls)
     electrons    :   2858.13s CPU   2930.77s WALL (      10 calls)
     update_pot   :      9.89s CPU      9.90s WALL (       8 calls)
     forces       :     13.09s CPU     13.18s WALL (      10 calls)
     stress       :     61.01s CPU     61.48s WALL (      10 calls)

     Called by init_run:
     wfcinit      :      6.77s CPU      6.86s WALL (       2 calls)
     potinit      :      0.60s CPU      0.61s WALL (       2 calls)
     hinit0       :      1.96s CPU      1.96s WALL (       2 calls)

     Called by electrons:
     c_bands      :   2570.50s CPU   2634.36s WALL (     229 calls)
     sum_band     :    267.96s CPU    271.96s WALL (     229 calls)
     v_of_rho     :      1.12s CPU      1.13s WALL (     237 calls)
     newd         :     10.13s CPU     11.65s WALL (     237 calls)
     PAW_pot      :      8.47s CPU      8.48s WALL (     245 calls)
     mix_rho      :      0.86s CPU      0.88s WALL (     229 calls)

     Called by c_bands:
     init_us_2    :     30.93s CPU     33.57s WALL (   46360 calls)
     init_us_2:cp :     30.78s CPU     33.47s WALL (   46360 calls)
     cegterg      :   2504.26s CPU   2527.07s WALL (   21952 calls)

     Called by *egterg:
     cdiaghg      :     41.74s CPU     42.15s WALL (  159691 calls)
     h_psi        :   1884.00s CPU   1904.60s WALL (  161014 calls)
     s_psi        :    120.83s CPU    121.47s WALL (  161014 calls)
     g_psi        :     12.05s CPU     12.14s WALL (  138872 calls)

     Called by h_psi:
     h_psi:calbec :    118.44s CPU    119.41s WALL (  161014 calls)
     vloc_psi     :   1640.16s CPU   1659.30s WALL (  161014 calls)
     add_vuspsi   :    121.05s CPU    121.62s WALL (  161014 calls)

     General routines
     calbec       :    154.90s CPU    156.16s WALL (  188279 calls)
     fft          :      1.08s CPU      1.10s WALL (    1038 calls)
     ffts         :      0.23s CPU      0.23s WALL (     229 calls)
     fftw         :   1703.68s CPU   1723.44s WALL ( 2955715 calls)

     Parallel routines

     PWSCF        :  49m14.41s CPU  50m33.86s WALL


   This run was terminated on:  19: 2:36  19Jun2023            

=------------------------------------------------------------------------------=
   JOB DONE.
=------------------------------------------------------------------------------=
