
     Program PWSCF v.7.2 starts on 26Jul2023 at 14:32: 2 

     This program is part of the open-source Quantum ESPRESSO suite
     for quantum simulation of materials; please cite
         "P. Giannozzi et al., J. Phys.:Condens. Matter 21 395502 (2009);
         "P. Giannozzi et al., J. Phys.:Condens. Matter 29 465901 (2017);
         "P. Giannozzi et al., J. Chem. Phys. 152 154105 (2020);
          URL http://www.quantum-espresso.org", 
     in publications or presentations arising from this work. More details at
     http://www.quantum-espresso.org/quote

     Parallel version (MPI), running on    20 processors

     MPI processes distributed on     1 nodes
     316722 MiB available memory on the printing compute node when the environment starts

     Waiting for input...
     Reading input from standard input

     Current dimensions of program PWSCF are:
     Max number of different atomic species (ntypx) = 10
     Max number of k-points (npk) = 120000
     Max angular momentum in pseudopotentials (lmaxx) =  4
     file Sc.pz-spn-kjpaw_psl.1.0.0.UPF: wavefunction(s)  3S 3P 3D renormalized

     K-points division:     npool     =       2
     R & G space division:  proc/nbgrp/npool/nimage =      10
     Subspace diagonalization in iterative solution of the eigenvalue problem:
     a serial algorithm will be used


     Parallelization info
     --------------------
     sticks:   dense  smooth     PW     G-vecs:    dense   smooth      PW
     Min          85      31     10                 3261      747     137
     Max          88      32     12                 3264      756     140
     Sum         859     313    109                32631     7499    1387

     Using Slab Decomposition



     bravais-lattice index     =            4
     lattice parameter (alat)  =       6.2531  a.u.
     unit-cell volume          =     337.5249 (a.u.)^3
     number of atoms/cell      =            2
     number of atomic types    =            1
     number of electrons       =        22.00
     number of Kohn-Sham states=           15
     kinetic-energy cutoff     =      30.0000  Ry
     charge density cutoff     =     320.0000  Ry
     scf convergence threshold =      1.0E-08
     mixing beta               =       0.7000
     number of iterations used =            8  plain     mixing
     Exchange-correlation= SLA  PZ   NOGX NOGC
                           (   1   1   0   0   0   0   0)

     celldm(1)=   6.253104  celldm(2)=   0.000000  celldm(3)=   1.594000
     celldm(4)=   0.000000  celldm(5)=   0.000000  celldm(6)=   0.000000

     crystal axes: (cart. coord. in units of alat)
               a(1) = (   1.000000   0.000000   0.000000 )  
               a(2) = (  -0.500000   0.866025   0.000000 )  
               a(3) = (   0.000000   0.000000   1.594000 )  

     reciprocal axes: (cart. coord. in units 2 pi/alat)
               b(1) = (  1.000000  0.577350 -0.000000 )  
               b(2) = (  0.000000  1.154701  0.000000 )  
               b(3) = (  0.000000 -0.000000  0.627353 )  


     PseudoPot. # 1 for Sc read from file:
     ../../../Sc.pz-spn-kjpaw_psl.1.0.0.UPF
     MD5 check sum: 1f9095df0bb42a6568b4e9f256ff075f
     Pseudo is Projector augmented-wave + core cor, Zval = 11.0
     Generated using 'atomic' code by A. Dal Corso  v.7.1
     Shape of augmentation charge: PSQ
     Using radial grid of 1173 points,  6 beta functions with: 
                l(1) =   0
                l(2) =   0
                l(3) =   1
                l(4) =   1
                l(5) =   2
                l(6) =   2
     Q(r) pseudized with 0 coefficients 


     atomic species   valence    mass     pseudopotential
        Sc            11.00    44.59600     Sc( 1.00)

     24 Sym. Ops., with inversion, found (12 have fractional translation)



   Cartesian axes

     site n.     atom                  positions (alat units)
         1           Sc  tau(   1) = (   0.0000000   0.0000000   0.0000000  )
         2           Sc  tau(   2) = (   0.5000000   0.2886751   0.7970000  )

     number of k points=    95  Marzari-Vanderbilt smearing, width (Ry)=  0.0200
                       cart. coord. in units 2pi/alat
        k(    1) = (   0.0000000   0.0000000   0.0000000), wk =   0.0017361
        k(    2) = (   0.0000000   0.0000000   0.0784191), wk =   0.0034722
        k(    3) = (   0.0000000   0.0000000   0.1568381), wk =   0.0034722
        k(    4) = (   0.0000000   0.0000000   0.2352572), wk =   0.0034722
        k(    5) = (   0.0000000   0.0000000  -0.3136763), wk =   0.0017361
        k(    6) = (   0.0000000   0.0962250   0.0000000), wk =   0.0104167
        k(    7) = (   0.0000000   0.0962250   0.0784191), wk =   0.0208333
        k(    8) = (   0.0000000   0.0962250   0.1568381), wk =   0.0208333
        k(    9) = (   0.0000000   0.0962250   0.2352572), wk =   0.0208333
        k(   10) = (   0.0000000   0.0962250  -0.3136763), wk =   0.0104167
        k(   11) = (   0.0000000   0.1924501   0.0000000), wk =   0.0104167
        k(   12) = (   0.0000000   0.1924501   0.0784191), wk =   0.0208333
        k(   13) = (   0.0000000   0.1924501   0.1568381), wk =   0.0208333
        k(   14) = (   0.0000000   0.1924501   0.2352572), wk =   0.0208333
        k(   15) = (   0.0000000   0.1924501  -0.3136763), wk =   0.0104167
        k(   16) = (   0.0000000   0.2886751   0.0000000), wk =   0.0104167
        k(   17) = (   0.0000000   0.2886751   0.0784191), wk =   0.0208333
        k(   18) = (   0.0000000   0.2886751   0.1568381), wk =   0.0208333
        k(   19) = (   0.0000000   0.2886751   0.2352572), wk =   0.0208333
        k(   20) = (   0.0000000   0.2886751  -0.3136763), wk =   0.0104167
        k(   21) = (   0.0000000   0.3849002   0.0000000), wk =   0.0104167
        k(   22) = (   0.0000000   0.3849002   0.0784191), wk =   0.0208333
        k(   23) = (   0.0000000   0.3849002   0.1568381), wk =   0.0208333
        k(   24) = (   0.0000000   0.3849002   0.2352572), wk =   0.0208333
        k(   25) = (   0.0000000   0.3849002  -0.3136763), wk =   0.0104167
        k(   26) = (   0.0000000   0.4811252   0.0000000), wk =   0.0104167
        k(   27) = (   0.0000000   0.4811252   0.0784191), wk =   0.0208333
        k(   28) = (   0.0000000   0.4811252   0.1568381), wk =   0.0208333
        k(   29) = (   0.0000000   0.4811252   0.2352572), wk =   0.0208333
        k(   30) = (   0.0000000   0.4811252  -0.3136763), wk =   0.0104167
        k(   31) = (   0.0000000  -0.5773503   0.0000000), wk =   0.0052083
        k(   32) = (   0.0000000  -0.5773503   0.0784191), wk =   0.0104167
        k(   33) = (   0.0000000  -0.5773503   0.1568381), wk =   0.0104167
        k(   34) = (   0.0000000  -0.5773503   0.2352572), wk =   0.0104167
        k(   35) = (   0.0000000  -0.5773503  -0.3136763), wk =   0.0052083
        k(   36) = (   0.0833333   0.1443376   0.0000000), wk =   0.0104167
        k(   37) = (   0.0833333   0.1443376   0.0784191), wk =   0.0208333
        k(   38) = (   0.0833333   0.1443376   0.1568381), wk =   0.0208333
        k(   39) = (   0.0833333   0.1443376   0.2352572), wk =   0.0208333
        k(   40) = (   0.0833333   0.1443376  -0.3136763), wk =   0.0104167
        k(   41) = (   0.0833333   0.2405626   0.0000000), wk =   0.0208333
        k(   42) = (   0.0833333   0.2405626   0.0784191), wk =   0.0416667
        k(   43) = (   0.0833333   0.2405626   0.1568381), wk =   0.0416667
        k(   44) = (   0.0833333   0.2405626   0.2352572), wk =   0.0416667
        k(   45) = (   0.0833333   0.2405626  -0.3136763), wk =   0.0208333
        k(   46) = (   0.0833333   0.3367877   0.0000000), wk =   0.0208333
        k(   47) = (   0.0833333   0.3367877   0.0784191), wk =   0.0416667
        k(   48) = (   0.0833333   0.3367877   0.1568381), wk =   0.0416667
        k(   49) = (   0.0833333   0.3367877   0.2352572), wk =   0.0416667
        k(   50) = (   0.0833333   0.3367877  -0.3136763), wk =   0.0208333
        k(   51) = (   0.0833333   0.4330127   0.0000000), wk =   0.0208333
        k(   52) = (   0.0833333   0.4330127   0.0784191), wk =   0.0416667
        k(   53) = (   0.0833333   0.4330127   0.1568381), wk =   0.0416667
        k(   54) = (   0.0833333   0.4330127   0.2352572), wk =   0.0416667
        k(   55) = (   0.0833333   0.4330127  -0.3136763), wk =   0.0208333
        k(   56) = (   0.0833333   0.5292377   0.0000000), wk =   0.0208333
        k(   57) = (   0.0833333   0.5292377   0.0784191), wk =   0.0416667
        k(   58) = (   0.0833333   0.5292377   0.1568381), wk =   0.0416667
        k(   59) = (   0.0833333   0.5292377   0.2352572), wk =   0.0416667
        k(   60) = (   0.0833333   0.5292377  -0.3136763), wk =   0.0208333
        k(   61) = (   0.1666667   0.2886751   0.0000000), wk =   0.0104167
        k(   62) = (   0.1666667   0.2886751   0.0784191), wk =   0.0208333
        k(   63) = (   0.1666667   0.2886751   0.1568381), wk =   0.0208333
        k(   64) = (   0.1666667   0.2886751   0.2352572), wk =   0.0208333
        k(   65) = (   0.1666667   0.2886751  -0.3136763), wk =   0.0104167
        k(   66) = (   0.1666667   0.3849002   0.0000000), wk =   0.0208333
        k(   67) = (   0.1666667   0.3849002   0.0784191), wk =   0.0416667
        k(   68) = (   0.1666667   0.3849002   0.1568381), wk =   0.0416667
        k(   69) = (   0.1666667   0.3849002   0.2352572), wk =   0.0416667
        k(   70) = (   0.1666667   0.3849002  -0.3136763), wk =   0.0208333
        k(   71) = (   0.1666667   0.4811252   0.0000000), wk =   0.0208333
        k(   72) = (   0.1666667   0.4811252   0.0784191), wk =   0.0416667
        k(   73) = (   0.1666667   0.4811252   0.1568381), wk =   0.0416667
        k(   74) = (   0.1666667   0.4811252   0.2352572), wk =   0.0416667
        k(   75) = (   0.1666667   0.4811252  -0.3136763), wk =   0.0208333
        k(   76) = (   0.1666667   0.5773503   0.0000000), wk =   0.0104167
        k(   77) = (   0.1666667   0.5773503   0.0784191), wk =   0.0208333
        k(   78) = (   0.1666667   0.5773503   0.1568381), wk =   0.0208333
        k(   79) = (   0.1666667   0.5773503   0.2352572), wk =   0.0208333
        k(   80) = (   0.1666667   0.5773503  -0.3136763), wk =   0.0104167
        k(   81) = (   0.2500000   0.4330127   0.0000000), wk =   0.0104167
        k(   82) = (   0.2500000   0.4330127   0.0784191), wk =   0.0208333
        k(   83) = (   0.2500000   0.4330127   0.1568381), wk =   0.0208333
        k(   84) = (   0.2500000   0.4330127   0.2352572), wk =   0.0208333
        k(   85) = (   0.2500000   0.4330127  -0.3136763), wk =   0.0104167
        k(   86) = (   0.2500000   0.5292377   0.0000000), wk =   0.0208333
        k(   87) = (   0.2500000   0.5292377   0.0784191), wk =   0.0416667
        k(   88) = (   0.2500000   0.5292377   0.1568381), wk =   0.0416667
        k(   89) = (   0.2500000   0.5292377   0.2352572), wk =   0.0416667
        k(   90) = (   0.2500000   0.5292377  -0.3136763), wk =   0.0208333
        k(   91) = (   0.3333333   0.5773503   0.0000000), wk =   0.0034722
        k(   92) = (   0.3333333   0.5773503   0.0784191), wk =   0.0069444
        k(   93) = (   0.3333333   0.5773503   0.1568381), wk =   0.0069444
        k(   94) = (   0.3333333   0.5773503   0.2352572), wk =   0.0069444
        k(   95) = (   0.3333333   0.5773503  -0.3136763), wk =   0.0034722

     Dense  grid:    32631 G-vectors     FFT dimensions: (  36,  36,  60)

     Smooth grid:     7499 G-vectors     FFT dimensions: (  24,  24,  36)

     Estimated max dynamical RAM per process >       9.10 MB

     Estimated total dynamical RAM >     174.13 MB

     Check: negative core charge=   -0.000015

     Initial potential from superposition of free atoms

     starting charge      21.9956, renormalised to      22.0000
     Starting wfcs are   20 randomized atomic wfcs
     Checking if some PAW data can be deallocated... 

     total cpu time spent up to now is        0.6 secs

     Self-consistent Calculation

     iteration #  1     ecut=    30.00 Ry     beta= 0.70
     Davidson diagonalization with overlap
     ethr =  1.00E-02,  avg # of iterations =  3.6

     Threshold (ethr) on eigenvalues was too large:
     Diagonalizing with lowered threshold

     Davidson diagonalization with overlap
     ethr =  1.26E-04,  avg # of iterations =  4.4

     total cpu time spent up to now is        1.7 secs

     total energy              =    -306.71957664 Ry
     estimated scf accuracy    <       0.04295846 Ry

     iteration #  2     ecut=    30.00 Ry     beta= 0.70
     Davidson diagonalization with overlap
     ethr =  1.95E-04,  avg # of iterations =  2.9

     total cpu time spent up to now is        2.3 secs

     total energy              =    -306.73182961 Ry
     estimated scf accuracy    <       0.00725772 Ry

     iteration #  3     ecut=    30.00 Ry     beta= 0.70
     Davidson diagonalization with overlap
     ethr =  3.30E-05,  avg # of iterations =  2.4

     total cpu time spent up to now is        2.8 secs

     total energy              =    -306.73342285 Ry
     estimated scf accuracy    <       0.00007692 Ry

     iteration #  4     ecut=    30.00 Ry     beta= 0.70
     Davidson diagonalization with overlap
     ethr =  3.50E-07,  avg # of iterations =  6.0

     total cpu time spent up to now is        3.5 secs

     total energy              =    -306.73348734 Ry
     estimated scf accuracy    <       0.00004396 Ry

     iteration #  5     ecut=    30.00 Ry     beta= 0.70
     Davidson diagonalization with overlap
     ethr =  2.00E-07,  avg # of iterations =  3.2

     total cpu time spent up to now is        4.0 secs

     total energy              =    -306.73349951 Ry
     estimated scf accuracy    <       0.00000069 Ry

     iteration #  6     ecut=    30.00 Ry     beta= 0.70
     Davidson diagonalization with overlap
     ethr =  3.15E-09,  avg # of iterations =  4.9

     total cpu time spent up to now is        4.6 secs

     total energy              =    -306.73349976 Ry
     estimated scf accuracy    <       0.00000027 Ry

     iteration #  7     ecut=    30.00 Ry     beta= 0.70
     Davidson diagonalization with overlap
     ethr =  1.23E-09,  avg # of iterations =  2.9

     total cpu time spent up to now is        5.2 secs

     End of self-consistent calculation

          k = 0.0000 0.0000 0.0000 (   965 PWs)   bands (ev):

   -40.4892 -40.4242 -19.4367 -19.1363 -19.1363 -19.1046 -19.1046 -19.0725
     3.7339   7.1851   9.2842  10.5569  10.5569  10.5901  10.9085

          k = 0.0000 0.0000 0.0784 (   953 PWs)   bands (ev):

   -40.4856 -40.4265 -19.4202 -19.1334 -19.1334 -19.0896 -19.0896 -19.0766
     3.8350   7.0149   9.2889  10.5135  10.5137  10.6114  10.9121

          k = 0.0000 0.0000 0.1568 (   947 PWs)   bands (ev):

   -40.4783 -40.4333 -19.3822 -19.1250 -19.1250 -19.1068 -19.0927 -19.0927
     4.1315   6.5413   9.3458  10.4336  10.4526  10.4528  10.7757

          k = 0.0000 0.0000 0.2353 (   942 PWs)   bands (ev):

   -40.4674 -40.4437 -19.3318 -19.1705 -19.1126 -19.1126 -19.0885 -19.0885
     4.6032   5.8913   9.5184  10.1489  10.4508  10.4526  10.6454

          k = 0.0000 0.0000-0.3137 (   954 PWs)   bands (ev):

   -40.4562 -40.4562 -19.2525 -19.2525 -19.1117 -19.1117 -19.1117 -19.1117
     5.2123   5.2123   9.8410   9.8410  10.4729  10.4729  10.4730

          k = 0.0000 0.0962 0.0000 (   953 PWs)   bands (ev):

   -40.4849 -40.4227 -19.4265 -19.1480 -19.1417 -19.1021 -19.0866 -19.0797
     3.8849   7.3184   9.1848  10.2661  10.6772  10.8191  10.9053

          k = 0.0000 0.0962 0.0784 (   948 PWs)   bands (ev):

   -40.4820 -40.4250 -19.4161 -19.1458 -19.1380 -19.0998 -19.0900 -19.0758
     3.9845   7.1437   9.1826  10.2683  10.6221  10.7130  10.8377

          k = 0.0000 0.0962 0.1568 (   955 PWs)   bands (ev):

   -40.4757 -40.4321 -19.3883 -19.1434 -19.1322 -19.1315 -19.1009 -19.0986
     4.2769   6.6680   9.2415  10.2686  10.4322  10.5455  10.7062

          k = 0.0000 0.0962 0.2353 (   953 PWs)   bands (ev):

   -40.4655 -40.4422 -19.3363 -19.1909 -19.1290 -19.1241 -19.1073 -19.1010
     4.7424   6.0196   9.4365  10.1198  10.3354  10.5035  10.5816

          k = 0.0000 0.0962-0.3137 (   954 PWs)   bands (ev):

   -40.4539 -40.4539 -19.2608 -19.2608 -19.1225 -19.1225 -19.1124 -19.1124
     5.3437   5.3437   9.7547   9.7548  10.4317  10.4341  10.5779

          k = 0.0000 0.1925 0.0000 (   939 PWs)   bands (ev):

   -40.4751 -40.4186 -19.4032 -19.1835 -19.1468 -19.1406 -19.0902 -19.0729
     4.3235   7.6813   8.9404   9.8416  10.6068  11.0727  11.0796

          k = 0.0000 0.1925 0.0784 (   945 PWs)   bands (ev):

   -40.4733 -40.4211 -19.3979 -19.1869 -19.1481 -19.1476 -19.0973 -19.0864
     4.4183   7.5024   8.9385   9.8703  10.5823  10.7454  10.8709

          k = 0.0000 0.1925 0.1568 (   945 PWs)   bands (ev):

   -40.4667 -40.4278 -19.3737 -19.1892 -19.1706 -19.1452 -19.1036 -19.0872
     4.6973   7.0180   9.0360   9.9373  10.3816  10.6164  10.7392

          k = 0.0000 0.1925 0.2353 (   945 PWs)   bands (ev):

   -40.4578 -40.4368 -19.3294 -19.2196 -19.1647 -19.1340 -19.1137 -19.1109
     5.1423   6.3754   9.2636   9.9227  10.1584  10.4543  10.7508

          k = 0.0000 0.1925-0.3137 (   944 PWs)   bands (ev):

   -40.4473 -40.4473 -19.2714 -19.2714 -19.1425 -19.1425 -19.1205 -19.1205
     5.7202   5.7202   9.5987   9.5988  10.2774  10.2778  10.8356

          k = 0.0000 0.2887 0.0000 (   949 PWs)   bands (ev):

   -40.4622 -40.4157 -19.3790 -19.2713 -19.2114 -19.1793 -19.0990 -19.0897
     5.0054   8.0918   8.6339   9.3797  10.3578  10.6759  10.8247

          k = 0.0000 0.2887 0.0784 (   949 PWs)   bands (ev):

   -40.4608 -40.4171 -19.3743 -19.2647 -19.2068 -19.1717 -19.1109 -19.1031
     5.0908   7.9276   8.6736   9.4133  10.3144  10.6002  10.7830

          k = 0.0000 0.2887 0.1568 (   936 PWs)   bands (ev):

   -40.4550 -40.4217 -19.3565 -19.2411 -19.2199 -19.1562 -19.1085 -19.1039
     5.3427   7.4627   8.8233   9.5029  10.1958  10.4911  10.8895

          k = 0.0000 0.2887 0.2353 (   936 PWs)   bands (ev):

   -40.4473 -40.4295 -19.3443 -19.2701 -19.1907 -19.1400 -19.1235 -19.1208
     5.7448   6.8650   9.0682   9.5442  10.0422  10.3109  10.9862

          k = 0.0000 0.2887-0.3137 (   928 PWs)   bands (ev):

   -40.4380 -40.4380 -19.3058 -19.3058 -19.1434 -19.1434 -19.1296 -19.1296
     6.2693   6.2693   9.3741   9.3741  10.1216  10.1217  11.1782

          k = 0.0000 0.3849 0.0000 (   944 PWs)   bands (ev):

   -40.4486 -40.4119 -19.3394 -19.3374 -19.2652 -19.1884 -19.1192 -19.1151
     5.8486   8.2865   8.4107   9.0030  10.3792  10.4106  10.5531

          k = 0.0000 0.3849 0.0784 (   934 PWs)   bands (ev):

   -40.4464 -40.4132 -19.3660 -19.2996 -19.2712 -19.1785 -19.1063 -19.1048
     5.9180   8.1151   8.5048   9.0458  10.2595  10.4801  10.6535

          k = 0.0000 0.3849 0.1568 (   943 PWs)   bands (ev):

   -40.4433 -40.4171 -19.3793 -19.3098 -19.2451 -19.1768 -19.1262 -19.1239
     6.1152   7.7590   8.6736   9.1345  10.0595  10.4085  10.7823

          k = 0.0000 0.3849 0.2353 (   936 PWs)   bands (ev):

   -40.4370 -40.4228 -19.3776 -19.3330 -19.1919 -19.1626 -19.1362 -19.1328
     6.4344   7.3063   8.9105   9.1954   9.9837  10.2301  11.0495

          k = 0.0000 0.3849-0.3137 (   928 PWs)   bands (ev):

   -40.4295 -40.4295 -19.3557 -19.3557 -19.1516 -19.1516 -19.1438 -19.1438
     6.8474   6.8474   9.1248   9.1248  10.0501  10.0501  11.3932

          k = 0.0000 0.4811 0.0000 (   932 PWs)   bands (ev):

   -40.4363 -40.4107 -19.3700 -19.3068 -19.3048 -19.1967 -19.1462 -19.1077
     6.7132   8.1156   8.2662   8.7182  10.2284  10.4206  10.6075

          k = 0.0000 0.4811 0.0784 (   925 PWs)   bands (ev):

   -40.4350 -40.4114 -19.3864 -19.3129 -19.2722 -19.1883 -19.1322 -19.1130
     6.7527   8.0087   8.3815   8.7652  10.2138  10.4909  10.5698

          k = 0.0000 0.4811 0.1568 (   930 PWs)   bands (ev):

   -40.4325 -40.4143 -19.4025 -19.3453 -19.2272 -19.1866 -19.1337 -19.1275
     6.8576   7.7902   8.5755   8.8755  10.1577  10.4265  10.6689

          k = 0.0000 0.4811 0.2353 (   930 PWs)   bands (ev):

   -40.4281 -40.4186 -19.4124 -19.3755 -19.1876 -19.1728 -19.1370 -19.1339
     7.0285   7.5285   8.8042   8.9819  10.0903  10.2305  11.0248

          k = 0.0000 0.4811-0.3137 (   934 PWs)   bands (ev):

   -40.4236 -40.4236 -19.4008 -19.4008 -19.1645 -19.1645 -19.1517 -19.1517
     7.2619   7.2619   8.9762   8.9762  10.0861  10.0861  11.4285

          k = 0.0000-0.5774 0.0000 (   924 PWs)   bands (ev):

   -40.4311 -40.4107 -19.3752 -19.3204 -19.2891 -19.1941 -19.1600 -19.1075
     7.2597   7.8583   8.2278   8.6006  10.1642  10.3661  10.7202

          k = 0.0000-0.5774 0.0784 (   924 PWs)   bands (ev):

   -40.4302 -40.4117 -19.3914 -19.3397 -19.2613 -19.1984 -19.1434 -19.1123
     7.2440   7.8188   8.3237   8.6141  10.1890  10.4517  10.6495

          k = 0.0000-0.5774 0.1568 (   924 PWs)   bands (ev):

   -40.4279 -40.4138 -19.4089 -19.3680 -19.2157 -19.1904 -19.1365 -19.1210
     7.2389   7.7236   8.5723   8.6989  10.2195  10.4500  10.6553

          k = 0.0000-0.5774 0.2353 (   928 PWs)   bands (ev):

   -40.4249 -40.4172 -19.4215 -19.3950 -19.1813 -19.1765 -19.1446 -19.1339
     7.2854   7.5651   8.8350   8.8357  10.1883  10.2278  10.9889

          k = 0.0000-0.5774-0.3137 (   936 PWs)   bands (ev):

   -40.4214 -40.4214 -19.4213 -19.4213 -19.1621 -19.1621 -19.1590 -19.1590
     7.3985   7.3985   8.9341   8.9341  10.1267  10.1267  11.4270

          k = 0.0833 0.1443 0.0000 (   941 PWs)   bands (ev):

   -40.4786 -40.4193 -19.4070 -19.1523 -19.1508 -19.1215 -19.0936 -19.0828
     4.1798   7.5777   9.0221   9.9987  10.6972  10.9593  11.0116

          k = 0.0833 0.1443 0.0784 (   948 PWs)   bands (ev):

   -40.4762 -40.4224 -19.4059 -19.1702 -19.1554 -19.1320 -19.0930 -19.0823
     4.2764   7.3940   9.0067   9.9859  10.6974  10.7068  10.8152

          k = 0.0833 0.1443 0.1568 (   948 PWs)   bands (ev):

   -40.4698 -40.4289 -19.3782 -19.1670 -19.1649 -19.1374 -19.1073 -19.0900
     4.5600   6.9093   9.0952  10.0287  10.4066  10.6347  10.7163

          k = 0.0833 0.1443 0.2353 (   945 PWs)   bands (ev):

   -40.4600 -40.4385 -19.3306 -19.2046 -19.1525 -19.1366 -19.1104 -19.1024
     5.0125   6.2630   9.3166  10.0127  10.1898  10.4854  10.7001

          k = 0.0833 0.1443-0.3137 (   954 PWs)   bands (ev):

   -40.4497 -40.4497 -19.2688 -19.2688 -19.1368 -19.1368 -19.1303 -19.1303
     5.5991   5.5991   9.6574   9.6576  10.3058  10.3066  10.7335

          k = 0.0833 0.2406 0.0000 (   951 PWs)   bands (ev):

   -40.4674 -40.4168 -19.3952 -19.2358 -19.1957 -19.1507 -19.1111 -19.0916
     4.7420   7.9706   8.7443   9.5310  10.4543  10.6756  10.9608

          k = 0.0833 0.2406 0.0784 (   946 PWs)   bands (ev):

   -40.4652 -40.4186 -19.3843 -19.2314 -19.1975 -19.1542 -19.1024 -19.0953
     4.8317   7.8024   8.7641   9.5555  10.4637  10.5893  10.9074

          k = 0.0833 0.2406 0.1568 (   938 PWs)   bands (ev):

   -40.4592 -40.4240 -19.3615 -19.2192 -19.2014 -19.1563 -19.1079 -19.0934
     5.0957   7.3191   8.8990   9.6427  10.2935  10.5144  10.8721

          k = 0.0833 0.2406 0.2353 (   939 PWs)   bands (ev):

   -40.4511 -40.4322 -19.3338 -19.2473 -19.1796 -19.1502 -19.1232 -19.1125
     5.5174   6.6940   9.1456   9.6943  10.0704  10.3437  10.9191

          k = 0.0833 0.2406-0.3137 (   934 PWs)   bands (ev):

   -40.4414 -40.4414 -19.2852 -19.2852 -19.1480 -19.1480 -19.1308 -19.1308
     6.0671   6.0671   9.4762   9.4762  10.1503  10.1506  11.0373

          k = 0.0833 0.3368 0.0000 (   939 PWs)   bands (ev):

   -40.4533 -40.4129 -19.3561 -19.2943 -19.2420 -19.1776 -19.1123 -19.1078
     5.5124   8.3112   8.5119   9.1108  10.3416  10.4321  10.7211

          k = 0.0833 0.3368 0.0784 (   940 PWs)   bands (ev):

   -40.4517 -40.4146 -19.3580 -19.2842 -19.2510 -19.1804 -19.1165 -19.1037
     5.5899   8.1375   8.5787   9.1512  10.2536  10.4711  10.7057

          k = 0.0833 0.3368 0.1568 (   938 PWs)   bands (ev):

   -40.4473 -40.4189 -19.3611 -19.2761 -19.2395 -19.1772 -19.1238 -19.1105
     5.8166   7.7131   8.7455   9.2493  10.0888  10.4217  10.7989

          k = 0.0833 0.3368 0.2353 (   934 PWs)   bands (ev):

   -40.4406 -40.4252 -19.3545 -19.3031 -19.1949 -19.1668 -19.1349 -19.1187
     6.1777   7.1804   8.9869   9.3283   9.9598  10.2150  11.0163

          k = 0.0833 0.3368-0.3137 (   936 PWs)   bands (ev):

   -40.4330 -40.4330 -19.3379 -19.3379 -19.1636 -19.1636 -19.1385 -19.1385
     6.6468   6.6468   9.2303   9.2303  10.0015  10.0015  11.2693

          k = 0.0833 0.4330 0.0000 (   936 PWs)   bands (ev):

   -40.4401 -40.4113 -19.3511 -19.3199 -19.2822 -19.2083 -19.1278 -19.1228
     6.3861   8.2950   8.3421   8.8033  10.2383  10.4736  10.5023

          k = 0.0833 0.4330 0.0784 (   934 PWs)   bands (ev):

   -40.4390 -40.4122 -19.3700 -19.3009 -19.2786 -19.2047 -19.1330 -19.1169
     6.4396   8.1397   8.4563   8.8612  10.1726  10.4545  10.5600

          k = 0.0833 0.4330 0.1568 (   929 PWs)   bands (ev):

   -40.4357 -40.4149 -19.3829 -19.3223 -19.2359 -19.1880 -19.1379 -19.1150
     6.5981   7.8736   8.6383   8.9872  10.0322  10.3405  10.7447

          k = 0.0833 0.4330 0.2353 (   933 PWs)   bands (ev):

   -40.4312 -40.4198 -19.3916 -19.3579 -19.2007 -19.1697 -19.1511 -19.1246
     6.8485   7.5323   8.8592   9.0746   9.9363  10.1357  11.0136

          k = 0.0833 0.4330-0.3137 (   936 PWs)   bands (ev):

   -40.4256 -40.4256 -19.3832 -19.3832 -19.1786 -19.1786 -19.1416 -19.1416
     7.1705   7.1705   9.0415   9.0415   9.9514   9.9514  11.3873

          k = 0.0833 0.5292 0.0000 (   928 PWs)   bands (ev):

   -40.4311 -40.4111 -19.3706 -19.3147 -19.2839 -19.2162 -19.1486 -19.1258
     7.1703   8.0191   8.2646   8.6013  10.1534  10.3294  10.7113

          k = 0.0833 0.5292 0.0784 (   929 PWs)   bands (ev):

   -40.4305 -40.4118 -19.3847 -19.3294 -19.2642 -19.2105 -19.1491 -19.1251
     7.1807   7.9615   8.3638   8.6368  10.1404  10.3335  10.7048

          k = 0.0833 0.5292 0.1568 (   927 PWs)   bands (ev):

   -40.4281 -40.4139 -19.4043 -19.3584 -19.2253 -19.1947 -19.1479 -19.1210
     7.2228   7.8294   8.5805   8.7557  10.1003  10.2569  10.8014

          k = 0.0833 0.5292 0.2353 (   930 PWs)   bands (ev):

   -40.4249 -40.4172 -19.4127 -19.3855 -19.2029 -19.1700 -19.1627 -19.1236
     7.3146   7.6522   8.8175   8.9264  10.0092  10.0572  11.0611

          k = 0.0833 0.5292-0.3137 (   932 PWs)   bands (ev):

   -40.4212 -40.4212 -19.4057 -19.4057 -19.1857 -19.1857 -19.1411 -19.1411
     7.4666   7.4666   8.9779   8.9779   9.9470   9.9470  11.4443

          k = 0.1667 0.2887 0.0000 (   941 PWs)   bands (ev):

   -40.4550 -40.4137 -19.3682 -19.2676 -19.2505 -19.1724 -19.1215 -19.0993
     5.3979   8.3325   8.5516   9.1236  10.3411  10.3838  10.8073

          k = 0.1667 0.2887 0.0784 (   939 PWs)   bands (ev):

   -40.4536 -40.4150 -19.3557 -19.2573 -19.2571 -19.1757 -19.1223 -19.1044
     5.4779   8.1611   8.6191   9.1614  10.3249  10.3955  10.7616

          k = 0.1667 0.2887 0.1568 (   942 PWs)   bands (ev):

   -40.4491 -40.4198 -19.3584 -19.2711 -19.2290 -19.1892 -19.1293 -19.1076
     5.7139   7.7039   8.7801   9.2562  10.1346  10.3867  10.7775

          k = 0.1667 0.2887 0.2353 (   939 PWs)   bands (ev):

   -40.4420 -40.4266 -19.3501 -19.2888 -19.1889 -19.1860 -19.1411 -19.1161
     6.0913   7.1397   9.0361   9.3664   9.9574  10.1818  10.9636

          k = 0.1667 0.2887-0.3137 (   940 PWs)   bands (ev):

   -40.4343 -40.4343 -19.3244 -19.3244 -19.1762 -19.1762 -19.1365 -19.1365
     6.5806   6.5806   9.2871   9.2871   9.9753   9.9754  11.1840

          k = 0.1667 0.3849 0.0000 (   938 PWs)   bands (ev):

   -40.4423 -40.4116 -19.3290 -19.3206 -19.2816 -19.2032 -19.1442 -19.1228
     6.2159   8.4198   8.5073   8.7857  10.1599  10.4226  10.5527

          k = 0.1667 0.3849 0.0784 (   936 PWs)   bands (ev):

   -40.4412 -40.4123 -19.3505 -19.2986 -19.2665 -19.2061 -19.1464 -19.1228
     6.2802   8.2939   8.5779   8.8401  10.1114  10.4515  10.4991

          k = 0.1667 0.3849 0.1568 (   935 PWs)   bands (ev):

   -40.4378 -40.4156 -19.3659 -19.3107 -19.2316 -19.2076 -19.1540 -19.1138
     6.4684   7.9911   8.7322   8.9533   9.9867  10.2629  10.6456

          k = 0.1667 0.3849 0.2353 (   935 PWs)   bands (ev):

   -40.4326 -40.4208 -19.3675 -19.3364 -19.2161 -19.1896 -19.1562 -19.1151
     6.7670   7.5828   8.9425   9.0909   9.8432  10.0076  10.9144

          k = 0.1667 0.3849-0.3137 (   934 PWs)   bands (ev):

   -40.4266 -40.4266 -19.3591 -19.3591 -19.1997 -19.1997 -19.1295 -19.1295
     7.1507   7.1507   9.1115   9.1115   9.8271   9.8271  11.2524

          k = 0.1667 0.4811 0.0000 (   930 PWs)   bands (ev):

   -40.4311 -40.4113 -19.3467 -19.3044 -19.2861 -19.2382 -19.1482 -19.1435
     7.0612   8.3208   8.3570   8.6112  10.0678  10.3016  10.6959

          k = 0.1667 0.4811 0.0784 (   936 PWs)   bands (ev):

   -40.4308 -40.4121 -19.3658 -19.3198 -19.2681 -19.2327 -19.1612 -19.1403
     7.0981   8.2237   8.4383   8.6813  10.0169  10.2226  10.7074

          k = 0.1667 0.4811 0.1568 (   934 PWs)   bands (ev):

   -40.4285 -40.4141 -19.3851 -19.3431 -19.2517 -19.2004 -19.1741 -19.1225
     7.2071   8.0574   8.6076   8.8412   9.8918  10.0572  10.7988

          k = 0.1667 0.4811 0.2353 (   935 PWs)   bands (ev):

   -40.4252 -40.4174 -19.3918 -19.3692 -19.2368 -19.2045 -19.1581 -19.1155
     7.3845   7.8429   8.8320   9.0061   9.7404   9.8004  11.0088

          k = 0.1667 0.4811-0.3137 (   932 PWs)   bands (ev):

   -40.4211 -40.4211 -19.3838 -19.3838 -19.2184 -19.2184 -19.1289 -19.1289
     7.6084   7.6084   9.0362   9.0362   9.6613   9.6613  11.3405

          k = 0.1667 0.5774 0.0000 (   936 PWs)   bands (ev):

   -40.4266 -40.4124 -19.3642 -19.3114 -19.2696 -19.2565 -19.1682 -19.1571
     7.5927   8.0733   8.3287   8.4958  10.0802  10.1322  10.8231

          k = 0.1667 0.5774 0.0784 (   930 PWs)   bands (ev):

   -40.4257 -40.4127 -19.3741 -19.3246 -19.2683 -19.2275 -19.1682 -19.1381
     7.5946   8.0646   8.4194   8.5395  10.0307  10.1192  10.8518

          k = 0.1667 0.5774 0.1568 (   931 PWs)   bands (ev):

   -40.4244 -40.4140 -19.3866 -19.3506 -19.2605 -19.1852 -19.1846 -19.1321
     7.6094   8.0061   8.6322   8.6771   9.8804   9.9698  10.9087

          k = 0.1667 0.5774 0.2353 (   935 PWs)   bands (ev):

   -40.4219 -40.4167 -19.3977 -19.3805 -19.2475 -19.2021 -19.1554 -19.1263
     7.6700   7.9012   8.8879   8.8970   9.6774   9.7195  11.1113

          k = 0.1667 0.5774-0.3137 (   936 PWs)   bands (ev):

   -40.4193 -40.4193 -19.3949 -19.3949 -19.2311 -19.2311 -19.1290 -19.1290
     7.7733   7.7733   9.0511   9.0511   9.5496   9.5496  11.4162

          k = 0.2500 0.4330 0.0000 (   935 PWs)   bands (ev):

   -40.4318 -40.4111 -19.3403 -19.3114 -19.2843 -19.2287 -19.1739 -19.1497
     7.0192   8.4142   8.5174   8.5547   9.9913  10.3010  10.6523

          k = 0.2500 0.4330 0.0784 (   936 PWs)   bands (ev):

   -40.4310 -40.4119 -19.3435 -19.3331 -19.2508 -19.2400 -19.1800 -19.1415
     7.0677   8.3398   8.5592   8.6334   9.9653  10.1826  10.6762

          k = 0.2500 0.4330 0.1568 (   936 PWs)   bands (ev):

   -40.4288 -40.4140 -19.3635 -19.3413 -19.2570 -19.2160 -19.1810 -19.1231
     7.2079   8.1934   8.6790   8.7978   9.8683   9.9284  10.7418

          k = 0.2500 0.4330 0.2353 (   936 PWs)   bands (ev):

   -40.4251 -40.4175 -19.3777 -19.3618 -19.2483 -19.2245 -19.1543 -19.1107
     7.4269   7.9606   8.8530   8.9765   9.6644   9.7055  10.9272

          k = 0.2500 0.4330-0.3137 (   938 PWs)   bands (ev):

   -40.4214 -40.4214 -19.3743 -19.3743 -19.2405 -19.2405 -19.1268 -19.1268
     7.6935   7.6935   9.0190   9.0190   9.5688   9.5688  11.2338

          k = 0.2500 0.5292 0.0000 (   933 PWs)   bands (ev):

   -40.4233 -40.4132 -19.3440 -19.3015 -19.2706 -19.2514 -19.1940 -19.1753
     7.7408   8.3197   8.4181   8.4497   9.9608  10.0656  10.9082

          k = 0.2500 0.5292 0.0784 (   936 PWs)   bands (ev):

   -40.4230 -40.4136 -19.3474 -19.3209 -19.2869 -19.2257 -19.2004 -19.1628
     7.7718   8.3076   8.4262   8.5494   9.8919   9.9589  10.9148

          k = 0.2500 0.5292 0.1568 (   936 PWs)   bands (ev):

   -40.4218 -40.4147 -19.3643 -19.3456 -19.2953 -19.2243 -19.1756 -19.1296
     7.8593   8.2620   8.5474   8.7299   9.6811   9.7646  10.9590

          k = 0.2500 0.5292 0.2353 (   934 PWs)   bands (ev):

   -40.4201 -40.4161 -19.3763 -19.3649 -19.2787 -19.2394 -19.1417 -19.1208
     7.9805   8.2015   8.7593   8.9749   9.3623   9.5321  11.0869

          k = 0.2500 0.5292-0.3137 (   930 PWs)   bands (ev):

   -40.4179 -40.4179 -19.3756 -19.3756 -19.2578 -19.2578 -19.1191 -19.1191
     8.1113   8.1113   9.0251   9.0251   9.2679   9.2679  11.3611

          k = 0.3333 0.5774 0.0000 (   930 PWs)   bands (ev):

   -40.4170 -40.4170 -19.3318 -19.2809 -19.2809 -19.2240 -19.2151 -19.2151
     8.2312   8.2312   8.3248   8.4551   9.9291   9.9291  11.0277

          k = 0.3333 0.5774 0.0784 (   924 PWs)   bands (ev):

   -40.4166 -40.4166 -19.3220 -19.3026 -19.3026 -19.2235 -19.1837 -19.1837
     8.2829   8.2829   8.3458   8.4770   9.8489   9.8489  11.0507

          k = 0.3333 0.5774 0.1568 (   930 PWs)   bands (ev):

   -40.4168 -40.4168 -19.3365 -19.3365 -19.3148 -19.2373 -19.1527 -19.1527
     8.3957   8.4092   8.4092   8.5125   9.6189   9.6189  11.0598

          k = 0.3333 0.5774 0.2353 (   918 PWs)   bands (ev):

   -40.4161 -40.4161 -19.3503 -19.3503 -19.2919 -19.2502 -19.1164 -19.1164
     8.4727   8.5541   8.6206   8.6206   9.3487   9.3487  11.1858

          k = 0.3333 0.5774-0.3137 (   924 PWs)   bands (ev):

   -40.4164 -40.4164 -19.3648 -19.3648 -19.2727 -19.2727 -19.1115 -19.1115
     8.5262   8.5262   8.7630   8.7630   9.1667   9.1667  11.4113

     the Fermi energy is     8.9073 ev

!    total energy              =    -306.73349982 Ry
     total all-electron energy =     -3049.874271 Ry
     estimated scf accuracy    <          4.8E-10 Ry
     smearing contrib. (-TS)   =      -0.00090867 Ry
     internal energy E=F+TS    =    -306.73259116 Ry

     The total energy is F=E-TS. E is the sum of the following terms:
     one-electron contribution =     -73.96185404 Ry
     hartree contribution      =      41.87466550 Ry
     xc contribution           =     -34.44825020 Ry
     ewald contribution        =    -126.46581261 Ry
     one-center paw contrib.   =    -113.73133981 Ry

     convergence has been achieved in   7 iterations

     Writing all to output data dir sc_rhocut.out/scandium.save/

     init_run     :      0.45s CPU      0.46s WALL (       1 calls)
     electrons    :      4.20s CPU      4.55s WALL (       1 calls)

     Called by init_run:
     wfcinit      :      0.21s CPU      0.22s WALL (       1 calls)
     potinit      :      0.06s CPU      0.06s WALL (       1 calls)
     hinit0       :      0.15s CPU      0.15s WALL (       1 calls)

     Called by electrons:
     c_bands      :      3.40s CPU      3.69s WALL (       8 calls)
     sum_band     :      0.50s CPU      0.52s WALL (       8 calls)
     v_of_rho     :      0.01s CPU      0.01s WALL (       8 calls)
     newd         :      0.08s CPU      0.08s WALL (       8 calls)
     PAW_pot      :      0.24s CPU      0.24s WALL (       8 calls)
     mix_rho      :      0.01s CPU      0.01s WALL (       8 calls)

     Called by c_bands:
     init_us_2    :      0.05s CPU      0.05s WALL (     816 calls)
     init_us_2:cp :      0.05s CPU      0.05s WALL (     816 calls)
     cegterg      :      3.08s CPU      3.22s WALL (     384 calls)

     Called by *egterg:
     cdiaghg      :      0.49s CPU      0.51s WALL (    1752 calls)
     h_psi        :      2.17s CPU      2.28s WALL (    1848 calls)
     s_psi        :      0.12s CPU      0.13s WALL (    1848 calls)
     g_psi        :      0.01s CPU      0.01s WALL (    1416 calls)

     Called by h_psi:
     h_psi:calbec :      0.17s CPU      0.18s WALL (    1848 calls)
     vloc_psi     :      1.86s CPU      1.96s WALL (    1848 calls)
     add_vuspsi   :      0.12s CPU      0.13s WALL (    1848 calls)

     General routines
     calbec       :      0.21s CPU      0.23s WALL (    2232 calls)
     fft          :      0.01s CPU      0.01s WALL (      47 calls)
     ffts         :      0.00s CPU      0.00s WALL (      16 calls)
     fftw         :      1.90s CPU      2.00s WALL (   40054 calls)
     interpolate  :      0.00s CPU      0.00s WALL (       8 calls)

     Parallel routines

     PWSCF        :      4.89s CPU      5.44s WALL


   This run was terminated on:  14:32: 8  26Jul2023            

=------------------------------------------------------------------------------=
   JOB DONE.
=------------------------------------------------------------------------------=
