
     Program PWSCF v.7.2 starts on 26Jul2023 at 14:31:52 

     This program is part of the open-source Quantum ESPRESSO suite
     for quantum simulation of materials; please cite
         "P. Giannozzi et al., J. Phys.:Condens. Matter 21 395502 (2009);
         "P. Giannozzi et al., J. Phys.:Condens. Matter 29 465901 (2017);
         "P. Giannozzi et al., J. Chem. Phys. 152 154105 (2020);
          URL http://www.quantum-espresso.org", 
     in publications or presentations arising from this work. More details at
     http://www.quantum-espresso.org/quote

     Parallel version (MPI), running on    20 processors

     MPI processes distributed on     1 nodes
     316759 MiB available memory on the printing compute node when the environment starts

     Waiting for input...
     Reading input from standard input

     Current dimensions of program PWSCF are:
     Max number of different atomic species (ntypx) = 10
     Max number of k-points (npk) = 120000
     Max angular momentum in pseudopotentials (lmaxx) =  4
     file Sc.pz-spn-kjpaw_psl.1.0.0.UPF: wavefunction(s)  3S 3P 3D renormalized

     K-points division:     npool     =       2
     R & G space division:  proc/nbgrp/npool/nimage =      10
     Subspace diagonalization in iterative solution of the eigenvalue problem:
     a serial algorithm will be used


     Parallelization info
     --------------------
     sticks:   dense  smooth     PW     G-vecs:    dense   smooth      PW
     Min          85      10      3                 3261      142      29
     Max          88      11      4                 3264      147      34
     Sum         859     109     37                32631     1449     313

     Using Slab Decomposition



     bravais-lattice index     =            4
     lattice parameter (alat)  =       6.2531  a.u.
     unit-cell volume          =     337.5249 (a.u.)^3
     number of atoms/cell      =            2
     number of atomic types    =            1
     number of electrons       =        22.00
     number of Kohn-Sham states=           15
     kinetic-energy cutoff     =      10.0000  Ry
     charge density cutoff     =     320.0000  Ry
     scf convergence threshold =      1.0E-08
     mixing beta               =       0.7000
     number of iterations used =            8  plain     mixing
     Exchange-correlation= SLA  PZ   NOGX NOGC
                           (   1   1   0   0   0   0   0)

     celldm(1)=   6.253104  celldm(2)=   0.000000  celldm(3)=   1.594000
     celldm(4)=   0.000000  celldm(5)=   0.000000  celldm(6)=   0.000000

     crystal axes: (cart. coord. in units of alat)
               a(1) = (   1.000000   0.000000   0.000000 )  
               a(2) = (  -0.500000   0.866025   0.000000 )  
               a(3) = (   0.000000   0.000000   1.594000 )  

     reciprocal axes: (cart. coord. in units 2 pi/alat)
               b(1) = (  1.000000  0.577350 -0.000000 )  
               b(2) = (  0.000000  1.154701  0.000000 )  
               b(3) = (  0.000000 -0.000000  0.627353 )  


     PseudoPot. # 1 for Sc read from file:
     ../../../Sc.pz-spn-kjpaw_psl.1.0.0.UPF
     MD5 check sum: 1f9095df0bb42a6568b4e9f256ff075f
     Pseudo is Projector augmented-wave + core cor, Zval = 11.0
     Generated using 'atomic' code by A. Dal Corso  v.7.1
     Shape of augmentation charge: PSQ
     Using radial grid of 1173 points,  6 beta functions with: 
                l(1) =   0
                l(2) =   0
                l(3) =   1
                l(4) =   1
                l(5) =   2
                l(6) =   2
     Q(r) pseudized with 0 coefficients 


     atomic species   valence    mass     pseudopotential
        Sc            11.00    44.59600     Sc( 1.00)

     24 Sym. Ops., with inversion, found (12 have fractional translation)



   Cartesian axes

     site n.     atom                  positions (alat units)
         1           Sc  tau(   1) = (   0.0000000   0.0000000   0.0000000  )
         2           Sc  tau(   2) = (   0.5000000   0.2886751   0.7970000  )

     number of k points=    95  Marzari-Vanderbilt smearing, width (Ry)=  0.0200
                       cart. coord. in units 2pi/alat
        k(    1) = (   0.0000000   0.0000000   0.0000000), wk =   0.0017361
        k(    2) = (   0.0000000   0.0000000   0.0784191), wk =   0.0034722
        k(    3) = (   0.0000000   0.0000000   0.1568381), wk =   0.0034722
        k(    4) = (   0.0000000   0.0000000   0.2352572), wk =   0.0034722
        k(    5) = (   0.0000000   0.0000000  -0.3136763), wk =   0.0017361
        k(    6) = (   0.0000000   0.0962250   0.0000000), wk =   0.0104167
        k(    7) = (   0.0000000   0.0962250   0.0784191), wk =   0.0208333
        k(    8) = (   0.0000000   0.0962250   0.1568381), wk =   0.0208333
        k(    9) = (   0.0000000   0.0962250   0.2352572), wk =   0.0208333
        k(   10) = (   0.0000000   0.0962250  -0.3136763), wk =   0.0104167
        k(   11) = (   0.0000000   0.1924501   0.0000000), wk =   0.0104167
        k(   12) = (   0.0000000   0.1924501   0.0784191), wk =   0.0208333
        k(   13) = (   0.0000000   0.1924501   0.1568381), wk =   0.0208333
        k(   14) = (   0.0000000   0.1924501   0.2352572), wk =   0.0208333
        k(   15) = (   0.0000000   0.1924501  -0.3136763), wk =   0.0104167
        k(   16) = (   0.0000000   0.2886751   0.0000000), wk =   0.0104167
        k(   17) = (   0.0000000   0.2886751   0.0784191), wk =   0.0208333
        k(   18) = (   0.0000000   0.2886751   0.1568381), wk =   0.0208333
        k(   19) = (   0.0000000   0.2886751   0.2352572), wk =   0.0208333
        k(   20) = (   0.0000000   0.2886751  -0.3136763), wk =   0.0104167
        k(   21) = (   0.0000000   0.3849002   0.0000000), wk =   0.0104167
        k(   22) = (   0.0000000   0.3849002   0.0784191), wk =   0.0208333
        k(   23) = (   0.0000000   0.3849002   0.1568381), wk =   0.0208333
        k(   24) = (   0.0000000   0.3849002   0.2352572), wk =   0.0208333
        k(   25) = (   0.0000000   0.3849002  -0.3136763), wk =   0.0104167
        k(   26) = (   0.0000000   0.4811252   0.0000000), wk =   0.0104167
        k(   27) = (   0.0000000   0.4811252   0.0784191), wk =   0.0208333
        k(   28) = (   0.0000000   0.4811252   0.1568381), wk =   0.0208333
        k(   29) = (   0.0000000   0.4811252   0.2352572), wk =   0.0208333
        k(   30) = (   0.0000000   0.4811252  -0.3136763), wk =   0.0104167
        k(   31) = (   0.0000000  -0.5773503   0.0000000), wk =   0.0052083
        k(   32) = (   0.0000000  -0.5773503   0.0784191), wk =   0.0104167
        k(   33) = (   0.0000000  -0.5773503   0.1568381), wk =   0.0104167
        k(   34) = (   0.0000000  -0.5773503   0.2352572), wk =   0.0104167
        k(   35) = (   0.0000000  -0.5773503  -0.3136763), wk =   0.0052083
        k(   36) = (   0.0833333   0.1443376   0.0000000), wk =   0.0104167
        k(   37) = (   0.0833333   0.1443376   0.0784191), wk =   0.0208333
        k(   38) = (   0.0833333   0.1443376   0.1568381), wk =   0.0208333
        k(   39) = (   0.0833333   0.1443376   0.2352572), wk =   0.0208333
        k(   40) = (   0.0833333   0.1443376  -0.3136763), wk =   0.0104167
        k(   41) = (   0.0833333   0.2405626   0.0000000), wk =   0.0208333
        k(   42) = (   0.0833333   0.2405626   0.0784191), wk =   0.0416667
        k(   43) = (   0.0833333   0.2405626   0.1568381), wk =   0.0416667
        k(   44) = (   0.0833333   0.2405626   0.2352572), wk =   0.0416667
        k(   45) = (   0.0833333   0.2405626  -0.3136763), wk =   0.0208333
        k(   46) = (   0.0833333   0.3367877   0.0000000), wk =   0.0208333
        k(   47) = (   0.0833333   0.3367877   0.0784191), wk =   0.0416667
        k(   48) = (   0.0833333   0.3367877   0.1568381), wk =   0.0416667
        k(   49) = (   0.0833333   0.3367877   0.2352572), wk =   0.0416667
        k(   50) = (   0.0833333   0.3367877  -0.3136763), wk =   0.0208333
        k(   51) = (   0.0833333   0.4330127   0.0000000), wk =   0.0208333
        k(   52) = (   0.0833333   0.4330127   0.0784191), wk =   0.0416667
        k(   53) = (   0.0833333   0.4330127   0.1568381), wk =   0.0416667
        k(   54) = (   0.0833333   0.4330127   0.2352572), wk =   0.0416667
        k(   55) = (   0.0833333   0.4330127  -0.3136763), wk =   0.0208333
        k(   56) = (   0.0833333   0.5292377   0.0000000), wk =   0.0208333
        k(   57) = (   0.0833333   0.5292377   0.0784191), wk =   0.0416667
        k(   58) = (   0.0833333   0.5292377   0.1568381), wk =   0.0416667
        k(   59) = (   0.0833333   0.5292377   0.2352572), wk =   0.0416667
        k(   60) = (   0.0833333   0.5292377  -0.3136763), wk =   0.0208333
        k(   61) = (   0.1666667   0.2886751   0.0000000), wk =   0.0104167
        k(   62) = (   0.1666667   0.2886751   0.0784191), wk =   0.0208333
        k(   63) = (   0.1666667   0.2886751   0.1568381), wk =   0.0208333
        k(   64) = (   0.1666667   0.2886751   0.2352572), wk =   0.0208333
        k(   65) = (   0.1666667   0.2886751  -0.3136763), wk =   0.0104167
        k(   66) = (   0.1666667   0.3849002   0.0000000), wk =   0.0208333
        k(   67) = (   0.1666667   0.3849002   0.0784191), wk =   0.0416667
        k(   68) = (   0.1666667   0.3849002   0.1568381), wk =   0.0416667
        k(   69) = (   0.1666667   0.3849002   0.2352572), wk =   0.0416667
        k(   70) = (   0.1666667   0.3849002  -0.3136763), wk =   0.0208333
        k(   71) = (   0.1666667   0.4811252   0.0000000), wk =   0.0208333
        k(   72) = (   0.1666667   0.4811252   0.0784191), wk =   0.0416667
        k(   73) = (   0.1666667   0.4811252   0.1568381), wk =   0.0416667
        k(   74) = (   0.1666667   0.4811252   0.2352572), wk =   0.0416667
        k(   75) = (   0.1666667   0.4811252  -0.3136763), wk =   0.0208333
        k(   76) = (   0.1666667   0.5773503   0.0000000), wk =   0.0104167
        k(   77) = (   0.1666667   0.5773503   0.0784191), wk =   0.0208333
        k(   78) = (   0.1666667   0.5773503   0.1568381), wk =   0.0208333
        k(   79) = (   0.1666667   0.5773503   0.2352572), wk =   0.0208333
        k(   80) = (   0.1666667   0.5773503  -0.3136763), wk =   0.0104167
        k(   81) = (   0.2500000   0.4330127   0.0000000), wk =   0.0104167
        k(   82) = (   0.2500000   0.4330127   0.0784191), wk =   0.0208333
        k(   83) = (   0.2500000   0.4330127   0.1568381), wk =   0.0208333
        k(   84) = (   0.2500000   0.4330127   0.2352572), wk =   0.0208333
        k(   85) = (   0.2500000   0.4330127  -0.3136763), wk =   0.0104167
        k(   86) = (   0.2500000   0.5292377   0.0000000), wk =   0.0208333
        k(   87) = (   0.2500000   0.5292377   0.0784191), wk =   0.0416667
        k(   88) = (   0.2500000   0.5292377   0.1568381), wk =   0.0416667
        k(   89) = (   0.2500000   0.5292377   0.2352572), wk =   0.0416667
        k(   90) = (   0.2500000   0.5292377  -0.3136763), wk =   0.0208333
        k(   91) = (   0.3333333   0.5773503   0.0000000), wk =   0.0034722
        k(   92) = (   0.3333333   0.5773503   0.0784191), wk =   0.0069444
        k(   93) = (   0.3333333   0.5773503   0.1568381), wk =   0.0069444
        k(   94) = (   0.3333333   0.5773503   0.2352572), wk =   0.0069444
        k(   95) = (   0.3333333   0.5773503  -0.3136763), wk =   0.0034722

     Dense  grid:    32631 G-vectors     FFT dimensions: (  36,  36,  60)

     Smooth grid:     1449 G-vectors     FFT dimensions: (  15,  15,  24)

     Estimated max dynamical RAM per process >       8.22 MB

     Estimated total dynamical RAM >     156.39 MB

     Check: negative core charge=   -0.000015

     Initial potential from superposition of free atoms

     starting charge      21.9956, renormalised to      22.0000
     Starting wfcs are   20 randomized atomic wfcs
     Checking if some PAW data can be deallocated... 

     total cpu time spent up to now is        0.6 secs

     Self-consistent Calculation

     iteration #  1     ecut=    10.00 Ry     beta= 0.70
     Davidson diagonalization with overlap
     ethr =  1.00E-02,  avg # of iterations =  3.5

     total cpu time spent up to now is        1.0 secs

     total energy              =    -290.23134988 Ry
     estimated scf accuracy    <       5.55730150 Ry

     iteration #  2     ecut=    10.00 Ry     beta= 0.70
     Davidson diagonalization with overlap
     ethr =  1.00E-02,  avg # of iterations =  2.0

     total cpu time spent up to now is        1.3 secs

     total energy              =    -290.86979750 Ry
     estimated scf accuracy    <       0.11563107 Ry

     iteration #  3     ecut=    10.00 Ry     beta= 0.70
     Davidson diagonalization with overlap
     ethr =  5.26E-04,  avg # of iterations =  1.1

     total cpu time spent up to now is        1.5 secs

     total energy              =    -290.87446041 Ry
     estimated scf accuracy    <       0.00361647 Ry

     iteration #  4     ecut=    10.00 Ry     beta= 0.70
     Davidson diagonalization with overlap
     ethr =  1.64E-05,  avg # of iterations =  3.6

     total cpu time spent up to now is        1.8 secs

     total energy              =    -290.87472954 Ry
     estimated scf accuracy    <       0.00002745 Ry

     iteration #  5     ecut=    10.00 Ry     beta= 0.70
     Davidson diagonalization with overlap
     ethr =  1.25E-07,  avg # of iterations =  3.8

     total cpu time spent up to now is        2.1 secs

     total energy              =    -290.87474455 Ry
     estimated scf accuracy    <       0.00000101 Ry

     iteration #  6     ecut=    10.00 Ry     beta= 0.70
     Davidson diagonalization with overlap
     ethr =  4.57E-09,  avg # of iterations =  2.4

     total cpu time spent up to now is        2.4 secs

     total energy              =    -290.87474509 Ry
     estimated scf accuracy    <       0.00000001 Ry

     iteration #  7     ecut=    10.00 Ry     beta= 0.70
     Davidson diagonalization with overlap
     ethr =  6.73E-11,  avg # of iterations =  3.2

     total cpu time spent up to now is        2.7 secs

     End of self-consistent calculation

          k = 0.0000 0.0000 0.0000 (   185 PWs)   bands (ev):

   -54.7116 -54.4576 -17.5106 -17.4334 -17.4334 -16.5441 -16.5441 -13.6135
     3.8493   8.7929  11.6915  16.4706  16.4706  16.8324  16.8324

          k = 0.0000 0.0000 0.0784 (   184 PWs)   bands (ev):

   -54.6305 -54.4448 -17.4225 -17.4225 -16.9293 -16.5303 -16.5303 -13.6296
     3.9617   8.4808  12.0919  16.4659  16.4659  16.7606  17.0053

          k = 0.0000 0.0000 0.1568 (   178 PWs)   bands (ev):

   -54.3763 -54.1719 -16.7844 -15.6139 -15.6139 -15.5503 -15.5503 -15.3743
     4.4657   7.7505  12.9411  16.4756  16.5897  16.5897  17.3581

          k = 0.0000 0.0000 0.2353 (   184 PWs)   bands (ev):

   -54.5590 -54.4560 -17.8715 -17.4052 -15.8134 -15.8134 -15.6103 -15.6103
     5.0330   6.7984  13.5232  15.1957  16.5301  16.5301  16.9782

          k = 0.0000 0.0000-0.3137 (   178 PWs)   bands (ev):

   -54.2961 -54.2961 -16.8468 -16.8468 -15.2738 -15.2738 -15.2738 -15.2738
     5.9421   5.9421  14.4583  14.4584  16.9213  16.9213  16.9213

          k = 0.0000 0.0962 0.0000 (   177 PWs)   bands (ev):

   -54.5539 -54.0441 -17.4410 -16.7677 -16.0460 -15.8400 -15.0001 -13.4783
     4.1540   9.0713  11.7519  15.9723  16.8290  16.8766  17.9770

          k = 0.0000 0.0962 0.0784 (   176 PWs)   bands (ev):

   -54.4508 -54.0659 -16.8511 -16.6995 -15.8642 -15.3573 -15.1381 -14.0149
     4.2965   8.7420  12.1818  16.0729  16.8429  16.9721  17.5448

          k = 0.0000 0.0962 0.1568 (   177 PWs)   bands (ev):

   -54.4393 -54.1240 -17.0306 -16.7711 -15.6313 -15.2917 -15.2335 -14.5803
     4.6624   7.9936  12.9834  16.2560  16.4865  16.7701  17.0472

          k = 0.0000 0.0962 0.2353 (   180 PWs)   bands (ev):

   -54.4532 -54.3328 -17.5221 -16.8366 -16.0681 -15.7280 -15.3643 -14.8553
     5.3091   7.0041  13.6518  15.4384  16.4037  16.7946  16.8974

          k = 0.0000 0.0962-0.3137 (   184 PWs)   bands (ev):

   -54.5418 -54.5418 -17.4255 -17.4255 -16.1722 -16.1722 -15.7613 -15.7613
     6.0638   6.0638  14.4419  14.4419  16.5762  16.5762  16.8333

          k = 0.0000 0.1925 0.0000 (   177 PWs)   bands (ev):

   -54.6544 -54.0290 -17.6048 -16.6751 -16.5613 -15.1893 -14.9573 -14.2641
     4.7642   9.8560  11.7801  15.0057  16.2525  17.1786  17.6329

          k = 0.0000 0.1925 0.0784 (   175 PWs)   bands (ev):

   -54.4611 -54.0583 -17.0489 -16.4643 -15.7445 -15.5582 -15.2904 -13.9640
     4.8900   9.3683  12.3029  15.0566  16.1756  17.3115  17.3942

          k = 0.0000 0.1925 0.1568 (   176 PWs)   bands (ev):

   -54.4081 -54.1863 -16.9331 -16.3134 -15.7571 -15.6525 -15.3337 -14.6758
     5.2779   8.4739  13.0544  15.1719  16.0764  16.5320  17.3419

          k = 0.0000 0.1925 0.2353 (   181 PWs)   bands (ev):

   -54.5131 -54.4472 -17.3395 -16.5548 -16.4420 -15.7471 -15.7458 -15.7279
     5.7933   7.4997  13.6555  15.1263  15.6459  15.9340  17.2824

          k = 0.0000 0.1925-0.3137 (   184 PWs)   bands (ev):

   -54.6038 -54.6038 -17.9585 -17.9585 -15.8979 -15.8979 -15.8754 -15.8754
     6.5424   6.5424  14.3446  14.3446  15.7555  15.7556  17.3375

          k = 0.0000 0.2887 0.0000 (   177 PWs)   bands (ev):

   -54.6312 -54.1134 -17.0329 -16.7481 -16.4947 -15.4685 -15.2446 -14.8493
     5.6592  10.7075  12.0109  13.7402  15.4375  16.3783  17.4819

          k = 0.0000 0.2887 0.0784 (   176 PWs)   bands (ev):

   -54.6119 -54.0536 -17.2090 -16.6123 -16.4009 -15.3958 -15.1117 -14.5486
     5.8184  10.1368  12.3962  13.7922  15.5018  16.2324  17.6972

          k = 0.0000 0.2887 0.1568 (   177 PWs)   bands (ev):

   -54.5746 -54.1415 -17.3390 -16.7529 -16.3774 -15.5258 -14.9512 -14.7446
     6.1044   9.1559  12.9700  13.9609  15.4469  16.0459  17.5382

          k = 0.0000 0.2887 0.2353 (   179 PWs)   bands (ev):

   -54.4968 -54.3440 -17.2995 -16.5102 -16.2213 -15.8399 -15.7744 -15.1103
     6.5791   8.2171  13.4919  14.1216  15.2074  15.4536  17.4802

          k = 0.0000 0.2887-0.3137 (   178 PWs)   bands (ev):

   -54.3615 -54.3615 -16.8037 -16.8037 -15.8142 -15.8142 -15.3597 -15.3597
     7.3127   7.3127  14.0315  14.0315  15.1726  15.1726  17.6975

          k = 0.0000 0.3849 0.0000 (   174 PWs)   bands (ev):

   -54.5010 -54.0587 -17.9327 -16.1737 -16.0004 -15.4537 -14.6916 -14.3632
     6.8380  11.6700  12.1523  12.5577  14.8137  15.4599  17.3925

          k = 0.0000 0.3849 0.0784 (   177 PWs)   bands (ev):

   -54.6029 -54.1737 -17.6244 -17.1768 -16.1252 -15.4781 -15.0950 -14.7046
     6.8717  10.9415  12.4744  12.5841  15.0010  15.2832  17.2972

          k = 0.0000 0.3849 0.1568 (   178 PWs)   bands (ev):

   -54.6170 -54.2022 -17.6049 -17.4207 -16.0112 -15.4517 -15.4235 -14.7925
     7.1505   9.9811  12.7212  12.9467  14.8839  15.5277  17.3552

          k = 0.0000 0.3849 0.2353 (   178 PWs)   bands (ev):

   -54.6051 -54.1763 -17.5565 -16.6304 -16.4744 -15.9260 -15.0353 -14.8714
     7.6179   9.0372  12.8749  13.3235  14.7878  15.4336  17.3876

          k = 0.0000 0.3849-0.3137 (   180 PWs)   bands (ev):

   -54.4707 -54.4707 -17.4945 -17.4945 -16.3715 -16.3715 -15.0074 -15.0074
     8.2201   8.2201  13.2222  13.2222  15.0303  15.0304  17.9705

          k = 0.0000 0.4811 0.0000 (   176 PWs)   bands (ev):

   -54.6310 -54.0967 -18.2729 -16.6625 -16.2025 -15.4990 -14.7525 -14.5211
     8.0199  11.0197  12.0175  12.4285  14.7654  14.8642  17.0897

          k = 0.0000 0.4811 0.0784 (   177 PWs)   bands (ev):

   -54.6758 -54.1213 -18.1742 -17.2573 -16.1221 -15.4843 -14.7687 -14.7455
     8.0934  10.8938  11.9754  12.5246  14.4781  15.0847  17.1305

          k = 0.0000 0.4811 0.1568 (   183 PWs)   bands (ev):

   -54.6283 -54.5872 -18.3251 -17.6711 -16.4208 -16.2078 -15.7905 -15.4076
     8.1736  10.4363  11.8883  12.5969  14.2482  15.3002  16.9198

          k = 0.0000 0.4811 0.2353 (   181 PWs)   bands (ev):

   -54.6469 -54.4378 -18.2977 -17.2999 -16.1073 -15.9840 -15.5503 -15.5082
     8.6021   9.7339  12.0497  12.6143  14.4755  15.2433  17.2112

          k = 0.0000 0.4811-0.3137 (   184 PWs)   bands (ev):

   -54.6714 -54.6714 -18.2322 -18.2322 -16.4476 -16.4476 -15.6154 -15.6154
     9.0672   9.0672  12.2333  12.2333  14.8561  14.8561  17.7025

          k = 0.0000-0.5774 0.0000 (   178 PWs)   bands (ev):

   -54.7086 -54.1154 -18.2790 -17.0283 -16.3851 -15.6754 -14.8468 -14.7367
     8.7868  10.3673  11.8960  12.5597  14.5238  15.1362  16.9675

          k = 0.0000-0.5774 0.0784 (   178 PWs)   bands (ev):

   -54.6625 -54.2070 -18.0044 -17.9550 -16.2342 -15.4812 -14.7839 -14.6943
     8.8202  10.2327  12.0754  12.5056  14.1804  15.2409  17.0411

          k = 0.0000-0.5774 0.1568 (   182 PWs)   bands (ev):

   -54.6075 -54.5414 -18.0783 -17.7059 -16.2907 -16.0914 -15.6612 -15.5108
     8.8742  10.1189  12.0177  12.4027  14.0148  15.3132  16.7871

          k = 0.0000-0.5774 0.2353 (   186 PWs)   bands (ev):

   -54.8822 -54.6163 -18.5098 -18.2318 -16.6812 -16.5749 -16.2649 -15.6141
     9.1186   9.8641  11.7922  11.9578  14.3093  15.1043  16.9116

          k = 0.0000-0.5774-0.3137 (   184 PWs)   bands (ev):

   -54.6842 -54.6842 -18.2604 -18.2604 -16.4688 -16.4688 -15.6302 -15.6302
     9.5670   9.5670  11.7237  11.7237  14.7795  14.7795  17.6737

          k = 0.0833 0.1443 0.0000 (   171 PWs)   bands (ev):

   -54.2602 -53.9440 -17.3675 -15.2674 -15.1591 -14.9896 -14.6653 -14.1115
     4.6039   9.6857  11.8568  15.4412  16.6509  17.4706  17.7000

          k = 0.0833 0.1443 0.0784 (   173 PWs)   bands (ev):

   -54.2979 -54.0665 -16.9196 -15.6774 -15.4711 -15.2896 -15.2564 -14.1951
     4.7149   9.2545  12.2818  15.4734  16.6777  17.2482  17.4998

          k = 0.0833 0.1443 0.1568 (   175 PWs)   bands (ev):

   -54.3651 -54.1357 -16.9545 -16.0221 -16.0120 -15.2247 -15.0377 -14.7685
     5.0999   8.3412  13.0832  15.5636  16.6598  16.6840  17.0770

          k = 0.0833 0.1443 0.2353 (   184 PWs)   bands (ev):

   -54.5902 -54.5731 -17.8733 -17.1659 -16.6044 -16.0246 -15.7761 -15.7149
     5.5992   7.2987  13.5482  15.4272  15.7052  16.3334  16.9194

          k = 0.0833 0.1443-0.3137 (   182 PWs)   bands (ev):

   -54.5101 -54.5101 -17.6785 -17.6785 -15.8342 -15.8342 -15.5196 -15.5196
     6.4148   6.4148  14.4366  14.4366  15.9942  15.9942  17.2426

          k = 0.0833 0.2406 0.0000 (   176 PWs)   bands (ev):

   -54.5479 -54.1114 -17.5666 -16.8201 -15.7438 -15.2687 -14.9853 -14.7566
     5.3458  10.4549  11.8385  14.3851  15.6830  16.8962  17.4380

          k = 0.0833 0.2406 0.0784 (   174 PWs)   bands (ev):

   -54.3864 -54.1179 -16.9462 -16.3421 -15.7182 -15.2434 -15.0461 -14.6310
     5.4573   9.9190  12.3995  14.4520  15.8074  16.6790  17.3682

          k = 0.0833 0.2406 0.1568 (   178 PWs)   bands (ev):

   -54.5501 -54.2358 -17.4866 -16.3057 -16.2152 -15.9649 -15.5198 -14.6994
     5.7712   8.8944  12.9357  14.5482  15.8290  16.2796  17.1613

          k = 0.0833 0.2406 0.2353 (   179 PWs)   bands (ev):

   -54.5208 -54.3291 -17.6312 -16.3920 -15.9031 -15.7806 -15.7022 -15.3365
     6.3197   7.9266  13.5805  14.6852  15.5632  15.6752  17.1801

          k = 0.0833 0.2406-0.3137 (   180 PWs)   bands (ev):

   -54.4560 -54.4560 -17.1296 -17.1296 -15.8262 -15.8262 -15.6949 -15.6949
     7.0516   7.0516  14.2986  14.2986  15.4091  15.4091  17.4338

          k = 0.0833 0.3368 0.0000 (   175 PWs)   bands (ev):

   -54.4391 -54.1838 -17.0541 -16.3784 -16.2829 -15.9304 -14.7457 -14.6321
     6.3482  11.3614  12.1332  13.1902  14.9046  15.9083  17.1439

          k = 0.0833 0.3368 0.0784 (   179 PWs)   bands (ev):

   -54.5641 -54.3377 -17.2530 -17.1424 -16.1102 -16.0324 -15.4795 -15.1322
     6.3870  10.6535  12.4304  13.2421  15.0354  15.6694  16.8982

          k = 0.0833 0.3368 0.1568 (   180 PWs)   bands (ev):

   -54.6689 -54.3004 -17.6798 -17.0237 -16.2676 -16.1416 -15.5713 -15.0718
     6.7410   9.5926  12.8511  13.4117  15.1870  15.5683  16.8804

          k = 0.0833 0.3368 0.2353 (   181 PWs)   bands (ev):

   -54.6160 -54.4059 -17.5527 -16.5208 -16.5098 -16.1606 -15.8079 -15.6648
     7.2021   8.6660  13.2674  13.6360  15.0081  15.3948  17.0123

          k = 0.0833 0.3368-0.3137 (   180 PWs)   bands (ev):

   -54.4629 -54.4629 -16.9649 -16.9649 -16.1633 -16.1633 -15.6348 -15.6348
     7.8622   7.8622  13.6709  13.6709  15.0020  15.0020  17.4777

          k = 0.0833 0.4330 0.0000 (   177 PWs)   bands (ev):

   -54.6804 -54.1149 -18.4366 -16.7376 -16.3911 -15.6806 -14.7986 -14.4351
     7.5248  11.7254  11.9883  12.2567  14.6432  15.0665  16.7636

          k = 0.0833 0.4330 0.0784 (   180 PWs)   bands (ev):

   -54.7462 -54.2610 -18.2876 -17.3437 -16.3013 -15.9819 -15.4730 -14.7901
     7.5835  11.1956  12.1346  12.4724  14.7502  14.9220  16.6940

          k = 0.0833 0.4330 0.1568 (   183 PWs)   bands (ev):

   -54.8298 -54.3860 -18.2810 -17.5118 -16.5471 -16.4591 -15.8362 -15.1723
     7.8018  10.2795  12.2712  12.6836  14.5133  15.3327  16.5420

          k = 0.0833 0.4330 0.2353 (   180 PWs)   bands (ev):

   -54.5834 -54.3843 -17.5910 -16.8572 -16.3498 -15.9899 -15.8221 -15.3171
     8.2306   9.5341  12.5225  12.9832  14.4782  15.2488  16.8473

          k = 0.0833 0.4330-0.3137 (   182 PWs)   bands (ev):

   -54.5706 -54.5706 -17.5566 -17.5566 -16.2972 -16.2972 -15.7406 -15.7406
     8.7911   8.7911  12.7916  12.7916  14.7596  14.7596  17.4529

          k = 0.0833 0.5292 0.0000 (   177 PWs)   bands (ev):

   -54.6672 -54.1007 -18.3370 -16.5992 -16.2071 -15.7794 -15.0017 -14.5316
     8.6702  10.5736  12.1121  12.4627  14.6079  15.0049  16.6142

          k = 0.0833 0.5292 0.0784 (   181 PWs)   bands (ev):

   -54.7908 -54.2668 -18.3794 -17.5362 -16.5595 -16.1223 -15.3627 -14.7513
     8.7236  10.5307  11.9773  12.4109  14.1476  15.2646  16.5453

          k = 0.0833 0.5292 0.1568 (   182 PWs)   bands (ev):

   -54.6602 -54.5145 -18.0752 -17.9471 -16.4082 -16.2779 -15.9841 -14.8265
     8.8423  10.3181  11.9617  12.4887  13.9495  15.4034  16.5061

          k = 0.0833 0.5292 0.2353 (   185 PWs)   bands (ev):

   -54.7189 -54.6950 -18.3197 -18.0793 -16.6338 -16.3151 -16.0355 -15.8877
     9.1093   9.9730  11.8232  12.2288  14.1549  15.0592  16.8112

          k = 0.0833 0.5292-0.3137 (   182 PWs)   bands (ev):

   -54.5990 -54.5990 -18.0784 -18.0784 -16.2478 -16.2478 -15.4556 -15.4556
     9.5808   9.5808  11.9838  11.9838  14.6572  14.6572  17.4941

          k = 0.1667 0.2887 0.0000 (   175 PWs)   bands (ev):

   -54.3872 -54.2396 -16.9894 -16.2977 -16.2522 -15.3797 -15.3324 -14.7810
     6.2087  11.3558  12.1299  13.6382  14.8124  16.4142  16.4279

          k = 0.1667 0.2887 0.0784 (   174 PWs)   bands (ev):

   -54.4671 -54.0851 -17.0486 -16.7247 -16.2293 -15.1316 -14.8868 -14.4429
     6.3296  10.6544  12.5879  13.7083  15.0206  16.2404  16.4399

          k = 0.1667 0.2887 0.1568 (   178 PWs)   bands (ev):

   -54.5385 -54.2836 -17.6006 -16.6351 -16.1543 -15.5798 -15.4729 -15.1364
     6.5656   9.5569  12.9357  13.8574  15.4356  15.7013  16.2430

          k = 0.1667 0.2887 0.2353 (   178 PWs)   bands (ev):

   -54.5571 -54.2330 -17.4446 -16.3720 -16.2541 -15.9019 -15.4128 -15.1176
     7.1281   8.5634  13.4777  14.0480  15.2126  15.3613  16.7643

          k = 0.1667 0.2887-0.3137 (   180 PWs)   bands (ev):

   -54.4728 -54.4728 -16.9712 -16.9712 -16.1110 -16.1110 -15.7391 -15.7391
     7.7529   7.7529  13.9480  13.9480  15.0764  15.0764  17.2924

          k = 0.1667 0.3849 0.0000 (   179 PWs)   bands (ev):

   -54.5273 -54.4142 -18.0041 -16.8001 -16.2236 -16.0392 -15.3878 -15.2907
     7.2351  12.2365  12.3037  12.6733  14.1070  15.3858  16.0221

          k = 0.1667 0.3849 0.0784 (   181 PWs)   bands (ev):

   -54.7017 -54.3858 -17.7250 -17.3751 -16.8535 -16.1461 -15.7479 -14.9569
     7.3385  11.2831  12.5251  12.7847  14.5310  15.2106  15.8785

          k = 0.1667 0.3849 0.1568 (   180 PWs)   bands (ev):

   -54.6046 -54.3966 -17.4110 -17.2006 -16.5657 -16.2319 -15.6939 -15.0548
     7.6272  10.3335  12.7659  13.0451  14.8701  15.3014  15.5710

          k = 0.1667 0.3849 0.2353 (   181 PWs)   bands (ev):

   -54.6273 -54.4348 -17.5467 -17.4048 -16.8209 -16.2074 -15.6889 -15.0067
     8.0493   9.4298  13.0117  13.3292  14.5921  14.9682  16.3354

          k = 0.1667 0.3849-0.3137 (   180 PWs)   bands (ev):

   -54.4838 -54.4838 -17.1751 -17.1751 -16.1449 -16.1449 -15.6630 -15.6630
     8.6615   8.6615  13.3417  13.3417  14.5524  14.5524  17.2386

          k = 0.1667 0.4811 0.0000 (   183 PWs)   bands (ev):

   -54.7928 -54.4397 -18.4518 -17.3408 -16.8749 -16.5604 -15.5174 -15.4165
     8.4342  11.4150  12.1739  12.4964  14.5738  14.6201  15.7576

          k = 0.1667 0.4811 0.0784 (   185 PWs)   bands (ev):

   -54.9181 -54.4780 -18.2220 -17.6142 -17.5092 -16.6969 -16.0586 -15.2748
     8.5040  11.2570  12.1040  12.5266  14.1897  15.0240  15.6176

          k = 0.1667 0.4811 0.1568 (   183 PWs)   bands (ev):

   -54.7947 -54.4707 -18.1021 -17.5546 -17.2113 -16.5880 -15.8556 -14.9366
     8.7655  10.8147  12.0084  12.6938  13.9165  15.2408  15.7319

          k = 0.1667 0.4811 0.2353 (   181 PWs)   bands (ev):

   -54.6329 -54.4852 -17.9454 -17.5158 -16.6707 -16.1813 -15.5878 -15.1973
     9.1570  10.2452  12.2341  12.8059  13.8547  14.6427  16.5654

          k = 0.1667 0.4811-0.3137 (   182 PWs)   bands (ev):

   -54.5982 -54.5982 -18.0782 -18.0782 -16.2351 -16.2351 -15.5313 -15.5313
     9.6271   9.6271  12.4977  12.4977  14.1656  14.1656  17.3117

          k = 0.1667 0.5774 0.0000 (   183 PWs)   bands (ev):

   -54.8201 -54.3692 -17.8060 -17.5769 -16.8703 -16.5699 -15.9343 -15.2251
     9.3577  10.4884  12.2377  12.4498  14.4426  15.4550  15.6765

          k = 0.1667 0.5774 0.0784 (   187 PWs)   bands (ev):

   -55.0217 -54.5160 -17.9492 -17.9130 -17.8548 -17.1821 -16.5712 -15.0818
     9.3944  10.3951  12.0879  12.4674  13.8987  15.4933  15.6748

          k = 0.1667 0.5774 0.1568 (   183 PWs)   bands (ev):

   -54.7030 -54.5790 -18.0818 -17.9841 -16.6824 -16.6542 -16.0761 -14.9316
     9.5594  10.4267  12.2062  12.5553  13.4728  15.1373  16.0362

          k = 0.1667 0.5774 0.2353 (   180 PWs)   bands (ev):

   -54.5434 -54.5257 -17.9172 -17.8957 -16.0790 -16.0734 -15.4843 -15.1829
     9.9146  10.4487  12.0360  12.1757  13.6517  14.5301  16.7923

          k = 0.1667 0.5774-0.3137 (   180 PWs)   bands (ev):

   -54.5302 -54.5302 -17.9153 -17.9153 -16.1408 -16.1408 -15.2396 -15.2396
    10.2342  10.2342  11.9410  11.9410  14.0774  14.0774  17.4295

          k = 0.2500 0.4330 0.0000 (   185 PWs)   bands (ev):

   -54.9010 -54.4861 -18.7258 -17.2682 -17.1278 -16.4191 -15.9899 -15.7780
     8.3555  12.0748  12.1703  12.2285  14.0609  14.9769  15.1326

          k = 0.2500 0.4330 0.0784 (   183 PWs)   bands (ev):

   -54.8433 -54.4120 -18.3840 -17.4238 -17.1018 -16.5197 -16.0209 -14.7916
     8.4320  11.7952  12.2188  12.3630  14.3050  15.0098  15.0515

          k = 0.2500 0.4330 0.1568 (   187 PWs)   bands (ev):

   -55.0195 -54.5794 -18.4263 -17.7992 -17.6588 -17.4696 -16.1944 -15.2496
     8.6661  10.9824  12.3463  12.4581  14.1501  14.5400  15.5029

          k = 0.2500 0.4330 0.2353 (   181 PWs)   bands (ev):

   -54.6892 -54.4203 -17.6526 -17.2648 -17.0965 -16.7015 -15.4915 -14.8479
     9.1473  10.3148  12.6648  12.8263  13.8919  14.0742  16.4666

          k = 0.2500 0.4330-0.3137 (   176 PWs)   bands (ev):

   -54.3605 -54.3605 -17.0162 -17.0162 -16.0416 -16.0416 -14.9759 -14.9759
     9.7352   9.7352  12.9928  12.9928  13.6900  13.6900  17.4735

          k = 0.2500 0.5292 0.0000 (   189 PWs)   bands (ev):

   -54.9724 -54.7245 -18.1925 -18.0771 -17.3167 -16.9817 -16.6236 -16.5144
     9.5362  11.0115  11.9045  12.2061  14.3735  14.8736  15.2038

          k = 0.2500 0.5292 0.0784 (   185 PWs)   bands (ev):

   -54.8543 -54.5419 -18.0077 -17.6720 -17.4443 -16.8100 -16.2041 -15.3102
     9.6319  11.0960  12.0274  12.4254  13.9581  14.7199  15.5777

          k = 0.2500 0.5292 0.1568 (   184 PWs)   bands (ev):

   -54.8381 -54.5271 -18.2586 -17.5665 -17.4253 -16.8298 -15.9664 -15.0305
     9.8565  11.1278  12.1376  12.3290  13.3718  14.2284  16.1378

          k = 0.2500 0.5292 0.2353 (   182 PWs)   bands (ev):

   -54.7284 -54.5288 -18.3427 -17.9346 -17.3514 -16.4801 -15.1530 -14.8623
    10.2403  11.0551  11.9968  12.6209  12.8383  13.6979  16.9102

          k = 0.2500 0.5292-0.3137 (   182 PWs)   bands (ev):

   -54.6274 -54.6274 -18.1367 -18.1367 -16.8171 -16.8171 -15.0727 -15.0727
    10.6663  10.6663  12.2299  12.2299  13.1240  13.1240  17.6972

          k = 0.3333 0.5774 0.0000 (   183 PWs)   bands (ev):

   -54.6060 -54.6060 -16.9215 -16.7969 -16.7969 -16.6087 -16.4438 -16.4438
    10.6755  10.6755  11.5103  12.4617  14.4564  14.4564  15.8444

          k = 0.3333 0.5774 0.0784 (   192 PWs)   bands (ev):

   -54.9626 -54.9626 -18.2278 -18.2278 -17.9244 -17.2158 -16.9803 -16.9803
    10.6780  10.6780  11.2842  12.2767  14.0004  14.0004  16.0239

          k = 0.3333 0.5774 0.1568 (   180 PWs)   bands (ev):

   -54.5416 -54.5416 -17.6374 -17.6374 -17.4029 -16.2981 -14.9295 -14.9295
    11.0232  11.0232  11.5162  12.5488  13.5547  13.5547  16.5588

          k = 0.3333 0.5774 0.2353 (   183 PWs)   bands (ev):

   -54.6874 -54.6874 -18.3424 -18.3424 -17.3840 -17.1084 -14.8997 -14.8997
    11.3233  11.3233  11.6900  12.2315  12.8236  12.8236  17.2972

          k = 0.3333 0.5774-0.3137 (   186 PWs)   bands (ev):

   -54.8008 -54.8008 -18.4454 -18.4454 -17.3378 -17.3378 -15.5458 -15.5458
    11.4501  11.4501  11.9393  11.9393  12.4085  12.4085  18.1169

     the Fermi energy is    12.6064 ev

!    total energy              =    -290.87474514 Ry
     total all-electron energy =     -3034.015516 Ry
     estimated scf accuracy    <          5.4E-10 Ry
     smearing contrib. (-TS)   =       0.00046369 Ry
     internal energy E=F+TS    =    -290.87520883 Ry

     The total energy is F=E-TS. E is the sum of the following terms:
     one-electron contribution =     -47.49591551 Ry
     hartree contribution      =      25.77804416 Ry
     xc contribution           =     -30.68599534 Ry
     ewald contribution        =    -126.46581261 Ry
     one-center paw contrib.   =    -112.00552953 Ry

     convergence has been achieved in   7 iterations

     Writing all to output data dir sc_rhocut.out/scandium.save/

     init_run     :      0.30s CPU      0.34s WALL (       1 calls)
     electrons    :      1.84s CPU      2.09s WALL (       1 calls)

     Called by init_run:
     wfcinit      :      0.08s CPU      0.10s WALL (       1 calls)
     potinit      :      0.08s CPU      0.09s WALL (       1 calls)
     hinit0       :      0.12s CPU      0.12s WALL (       1 calls)

     Called by electrons:
     c_bands      :      1.29s CPU      1.50s WALL (       7 calls)
     sum_band     :      0.24s CPU      0.27s WALL (       7 calls)
     v_of_rho     :      0.01s CPU      0.01s WALL (       8 calls)
     newd         :      0.08s CPU      0.08s WALL (       8 calls)
     PAW_pot      :      0.26s CPU      0.27s WALL (       8 calls)
     mix_rho      :      0.01s CPU      0.01s WALL (       7 calls)

     Called by c_bands:
     init_us_2    :      0.02s CPU      0.02s WALL (     720 calls)
     init_us_2:cp :      0.01s CPU      0.02s WALL (     720 calls)
     cegterg      :      1.18s CPU      1.28s WALL (     336 calls)

     Called by *egterg:
     cdiaghg      :      0.34s CPU      0.37s WALL (    1264 calls)
     h_psi        :      0.73s CPU      0.81s WALL (    1312 calls)
     s_psi        :      0.03s CPU      0.04s WALL (    1312 calls)
     g_psi        :      0.00s CPU      0.00s WALL (     928 calls)

     Called by h_psi:
     h_psi:calbec :      0.06s CPU      0.07s WALL (    1312 calls)
     vloc_psi     :      0.62s CPU      0.69s WALL (    1312 calls)
     add_vuspsi   :      0.03s CPU      0.04s WALL (    1312 calls)

     General routines
     calbec       :      0.08s CPU      0.09s WALL (    1648 calls)
     fft          :      0.02s CPU      0.02s WALL (      46 calls)
     ffts         :      0.00s CPU      0.00s WALL (      15 calls)
     fftw         :      0.59s CPU      0.65s WALL (   32616 calls)
     interpolate  :      0.00s CPU      0.00s WALL (       8 calls)

     Parallel routines

     PWSCF        :      2.36s CPU      3.00s WALL


   This run was terminated on:  14:31:55  26Jul2023            

=------------------------------------------------------------------------------=
   JOB DONE.
=------------------------------------------------------------------------------=
