
     Program PWSCF v.7.2 starts on 26Jul2023 at 15:17:25 

     This program is part of the open-source Quantum ESPRESSO suite
     for quantum simulation of materials; please cite
         "P. Giannozzi et al., J. Phys.:Condens. Matter 21 395502 (2009);
         "P. Giannozzi et al., J. Phys.:Condens. Matter 29 465901 (2017);
         "P. Giannozzi et al., J. Chem. Phys. 152 154105 (2020);
          URL http://www.quantum-espresso.org", 
     in publications or presentations arising from this work. More details at
     http://www.quantum-espresso.org/quote

     Parallel version (MPI), running on    20 processors

     MPI processes distributed on     1 nodes
     309390 MiB available memory on the printing compute node when the environment starts

     Waiting for input...
     Reading input from standard input

     Current dimensions of program PWSCF are:
     Max number of different atomic species (ntypx) = 10
     Max number of k-points (npk) = 120000
     Max angular momentum in pseudopotentials (lmaxx) =  4
     file Sc.pz-spn-kjpaw_psl.1.0.0.UPF: wavefunction(s)  3S 3P 3D renormalized

     R & G space division:  proc/nbgrp/npool/nimage =      20
     Subspace diagonalization in iterative solution of the eigenvalue problem:
     a serial algorithm will be used


     Parallelization info
     --------------------
     sticks:   dense  smooth     PW     G-vecs:    dense   smooth      PW
     Min          42      42     12                 1626     1626     256
     Max          43      43     13                 1637     1637     263
     Sum         859     859    253                32631    32631    5203

     Using Slab Decomposition



     bravais-lattice index     =            4
     lattice parameter (alat)  =       6.2531  a.u.
     unit-cell volume          =     337.5249 (a.u.)^3
     number of atoms/cell      =            2
     number of atomic types    =            1
     number of electrons       =        22.00
     number of Kohn-Sham states=           15
     kinetic-energy cutoff     =      80.0000  Ry
     charge density cutoff     =     320.0000  Ry
     scf convergence threshold =      1.0E-08
     mixing beta               =       0.7000
     number of iterations used =            8  plain     mixing
     Exchange-correlation= SLA  PZ   NOGX NOGC
                           (   1   1   0   0   0   0   0)

     celldm(1)=   6.253104  celldm(2)=   0.000000  celldm(3)=   1.594000
     celldm(4)=   0.000000  celldm(5)=   0.000000  celldm(6)=   0.000000

     crystal axes: (cart. coord. in units of alat)
               a(1) = (   1.000000   0.000000   0.000000 )  
               a(2) = (  -0.500000   0.866025   0.000000 )  
               a(3) = (   0.000000   0.000000   1.594000 )  

     reciprocal axes: (cart. coord. in units 2 pi/alat)
               b(1) = (  1.000000  0.577350 -0.000000 )  
               b(2) = (  0.000000  1.154701  0.000000 )  
               b(3) = (  0.000000 -0.000000  0.627353 )  


     PseudoPot. # 1 for Sc read from file:
     ../../../Sc.pz-spn-kjpaw_psl.1.0.0.UPF
     MD5 check sum: 1f9095df0bb42a6568b4e9f256ff075f
     Pseudo is Projector augmented-wave + core cor, Zval = 11.0
     Generated using 'atomic' code by A. Dal Corso  v.7.1
     Shape of augmentation charge: PSQ
     Using radial grid of 1173 points,  6 beta functions with: 
                l(1) =   0
                l(2) =   0
                l(3) =   1
                l(4) =   1
                l(5) =   2
                l(6) =   2
     Q(r) pseudized with 0 coefficients 


     atomic species   valence    mass     pseudopotential
        Sc            11.00    44.59600     Sc( 1.00)

     24 Sym. Ops., with inversion, found (12 have fractional translation)



   Cartesian axes

     site n.     atom                  positions (alat units)
         1           Sc  tau(   1) = (   0.0000000   0.0000000   0.0000000  )
         2           Sc  tau(   2) = (   0.5000000   0.2886751   0.7970000  )

     number of k points=    48  Marzari-Vanderbilt smearing, width (Ry)=  0.0100
                       cart. coord. in units 2pi/alat
        k(    1) = (   0.0000000   0.0000000   0.0000000), wk =   0.0041152
        k(    2) = (   0.0000000   0.0000000   0.1045588), wk =   0.0082305
        k(    3) = (   0.0000000   0.0000000   0.2091175), wk =   0.0082305
        k(    4) = (   0.0000000   0.0000000  -0.3136763), wk =   0.0041152
        k(    5) = (   0.0000000   0.1283001   0.0000000), wk =   0.0246914
        k(    6) = (   0.0000000   0.1283001   0.1045588), wk =   0.0493827
        k(    7) = (   0.0000000   0.1283001   0.2091175), wk =   0.0493827
        k(    8) = (   0.0000000   0.1283001  -0.3136763), wk =   0.0246914
        k(    9) = (   0.0000000   0.2566001   0.0000000), wk =   0.0246914
        k(   10) = (   0.0000000   0.2566001   0.1045588), wk =   0.0493827
        k(   11) = (   0.0000000   0.2566001   0.2091175), wk =   0.0493827
        k(   12) = (   0.0000000   0.2566001  -0.3136763), wk =   0.0246914
        k(   13) = (   0.0000000   0.3849002   0.0000000), wk =   0.0246914
        k(   14) = (   0.0000000   0.3849002   0.1045588), wk =   0.0493827
        k(   15) = (   0.0000000   0.3849002   0.2091175), wk =   0.0493827
        k(   16) = (   0.0000000   0.3849002  -0.3136763), wk =   0.0246914
        k(   17) = (   0.0000000   0.5132002   0.0000000), wk =   0.0246914
        k(   18) = (   0.0000000   0.5132002   0.1045588), wk =   0.0493827
        k(   19) = (   0.0000000   0.5132002   0.2091175), wk =   0.0493827
        k(   20) = (   0.0000000   0.5132002  -0.3136763), wk =   0.0246914
        k(   21) = (   0.1111111   0.1924501   0.0000000), wk =   0.0246914
        k(   22) = (   0.1111111   0.1924501   0.1045588), wk =   0.0493827
        k(   23) = (   0.1111111   0.1924501   0.2091175), wk =   0.0493827
        k(   24) = (   0.1111111   0.1924501  -0.3136763), wk =   0.0246914
        k(   25) = (   0.1111111   0.3207501   0.0000000), wk =   0.0493827
        k(   26) = (   0.1111111   0.3207501   0.1045588), wk =   0.0987654
        k(   27) = (   0.1111111   0.3207501   0.2091175), wk =   0.0987654
        k(   28) = (   0.1111111   0.3207501  -0.3136763), wk =   0.0493827
        k(   29) = (   0.1111111   0.4490502   0.0000000), wk =   0.0493827
        k(   30) = (   0.1111111   0.4490502   0.1045588), wk =   0.0987654
        k(   31) = (   0.1111111   0.4490502   0.2091175), wk =   0.0987654
        k(   32) = (   0.1111111   0.4490502  -0.3136763), wk =   0.0493827
        k(   33) = (   0.1111111   0.5773503   0.0000000), wk =   0.0246914
        k(   34) = (   0.1111111   0.5773503   0.1045588), wk =   0.0493827
        k(   35) = (   0.1111111   0.5773503   0.2091175), wk =   0.0493827
        k(   36) = (   0.1111111   0.5773503  -0.3136763), wk =   0.0246914
        k(   37) = (   0.2222222   0.3849002   0.0000000), wk =   0.0246914
        k(   38) = (   0.2222222   0.3849002   0.1045588), wk =   0.0493827
        k(   39) = (   0.2222222   0.3849002   0.2091175), wk =   0.0493827
        k(   40) = (   0.2222222   0.3849002  -0.3136763), wk =   0.0246914
        k(   41) = (   0.2222222   0.5132002   0.0000000), wk =   0.0493827
        k(   42) = (   0.2222222   0.5132002   0.1045588), wk =   0.0987654
        k(   43) = (   0.2222222   0.5132002   0.2091175), wk =   0.0987654
        k(   44) = (   0.2222222   0.5132002  -0.3136763), wk =   0.0493827
        k(   45) = (   0.3333333   0.5773503   0.0000000), wk =   0.0082305
        k(   46) = (   0.3333333   0.5773503   0.1045588), wk =   0.0164609
        k(   47) = (   0.3333333   0.5773503   0.2091175), wk =   0.0164609
        k(   48) = (   0.3333333   0.5773503  -0.3136763), wk =   0.0082305

     Dense  grid:    32631 G-vectors     FFT dimensions: (  36,  36,  60)

     Estimated max dynamical RAM per process >       9.47 MB

     Estimated total dynamical RAM >     189.35 MB

     Check: negative core charge=   -0.000015

     Initial potential from superposition of free atoms

     starting charge      21.9956, renormalised to      22.0000
     Starting wfcs are   20 randomized atomic wfcs
     Checking if some PAW data can be deallocated... 

     total cpu time spent up to now is        0.7 secs

     Self-consistent Calculation

     iteration #  1     ecut=    80.00 Ry     beta= 0.70
     Davidson diagonalization with overlap
     ethr =  1.00E-02,  avg # of iterations =  2.4

     Threshold (ethr) on eigenvalues was too large:
     Diagonalizing with lowered threshold

     Davidson diagonalization with overlap
     c_bands:  3 eigenvalues not converged
     c_bands:  1 eigenvalues not converged
     c_bands:  1 eigenvalues not converged
     c_bands:  1 eigenvalues not converged
     c_bands:  5 eigenvalues not converged
     c_bands:  1 eigenvalues not converged
     c_bands:  1 eigenvalues not converged
     c_bands:  1 eigenvalues not converged
     c_bands:  5 eigenvalues not converged
     c_bands:  3 eigenvalues not converged
     c_bands:  1 eigenvalues not converged
     ethr =  1.71E-05,  avg # of iterations = 17.7

     total cpu time spent up to now is        4.7 secs

     total energy              =    -306.86666041 Ry
     estimated scf accuracy    <       0.02039392 Ry

     iteration #  2     ecut=    80.00 Ry     beta= 0.70
     Davidson diagonalization with overlap
     ethr =  9.27E-05,  avg # of iterations =  4.0

     total cpu time spent up to now is        5.6 secs

     total energy              =    -306.87158059 Ry
     estimated scf accuracy    <       0.00147694 Ry

     iteration #  3     ecut=    80.00 Ry     beta= 0.70
     Davidson diagonalization with overlap
     c_bands:  1 eigenvalues not converged
     ethr =  6.71E-06,  avg # of iterations =  8.4

     total cpu time spent up to now is        6.9 secs

     total energy              =    -306.87268477 Ry
     estimated scf accuracy    <       0.00037119 Ry

     iteration #  4     ecut=    80.00 Ry     beta= 0.70
     Davidson diagonalization with overlap
     ethr =  1.69E-06,  avg # of iterations =  6.3

     total cpu time spent up to now is        8.0 secs

     total energy              =    -306.87289242 Ry
     estimated scf accuracy    <       0.00019414 Ry

     iteration #  5     ecut=    80.00 Ry     beta= 0.70
     Davidson diagonalization with overlap
     ethr =  8.82E-07,  avg # of iterations =  6.1

     total cpu time spent up to now is        9.3 secs

     total energy              =    -306.87298499 Ry
     estimated scf accuracy    <       0.00001416 Ry

     iteration #  6     ecut=    80.00 Ry     beta= 0.70
     Davidson diagonalization with overlap
     ethr =  6.44E-08,  avg # of iterations =  9.3

     total cpu time spent up to now is       10.5 secs

     total energy              =    -306.87299007 Ry
     estimated scf accuracy    <       0.00002169 Ry

     iteration #  7     ecut=    80.00 Ry     beta= 0.70
     Davidson diagonalization with overlap
     ethr =  6.44E-08,  avg # of iterations =  5.2

     total cpu time spent up to now is       11.5 secs

     total energy              =    -306.87299647 Ry
     estimated scf accuracy    <       0.00000025 Ry

     iteration #  8     ecut=    80.00 Ry     beta= 0.70
     Davidson diagonalization with overlap
     c_bands:  2 eigenvalues not converged
     ethr =  1.12E-09,  avg # of iterations = 15.0

     total cpu time spent up to now is       13.5 secs

     total energy              =    -306.87299796 Ry
     estimated scf accuracy    <       0.00000001 Ry

     iteration #  9     ecut=    80.00 Ry     beta= 0.70
     Davidson diagonalization with overlap
     ethr =  4.84E-11,  avg # of iterations = 11.6

     total cpu time spent up to now is       15.0 secs

     End of self-consistent calculation

          k = 0.0000 0.0000 0.0000 (  4055 PWs)   bands (ev):

   -40.1403 -40.0759 -19.2236 -18.8923 -18.8923 -18.8339 -18.8339 -18.8147
     3.7530   7.1390   9.3012  10.3489  10.3489  10.4606  10.7524

          k = 0.0000 0.0000 0.1046 (  4061 PWs)   bands (ev):

   -40.1360 -40.0803 -19.1971 -18.8884 -18.8884 -18.8430 -18.8378 -18.8378
     3.9322   6.8671   9.2608  10.2829  10.2829  10.3468  10.6578

          k = 0.0000 0.0000 0.2091 (  4078 PWs)   bands (ev):

   -40.1243 -40.0921 -19.1240 -18.9196 -18.8777 -18.8777 -18.8486 -18.8486
     4.4482   6.1291   9.3566  10.0435  10.2284  10.2285  10.4589

          k = 0.0000 0.0000-0.3137 (  4060 PWs)   bands (ev):

   -40.1082 -40.1082 -19.0226 -19.0226 -18.8632 -18.8632 -18.8632 -18.8632
     5.2299   5.2299   9.6635   9.6635  10.2900  10.2900  10.2900

          k = 0.0000 0.1283 0.0000 (  4073 PWs)   bands (ev):

   -40.1345 -40.0736 -19.2081 -18.9242 -18.9028 -18.8671 -18.8385 -18.8214
     4.0203   7.3655   9.0910   9.9515  10.5430  10.5719  10.7576

          k = 0.0000 0.1283 0.1046 (  4060 PWs)   bands (ev):

   -40.1304 -40.0777 -19.1845 -18.9189 -18.8985 -18.8830 -18.8428 -18.8357
     4.1948   7.0920   9.0627   9.9635  10.4249  10.4427  10.8055

          k = 0.0000 0.1283 0.2091 (  4065 PWs)   bands (ev):

   -40.1193 -40.0889 -19.1196 -18.9420 -18.9035 -18.8868 -18.8600 -18.8546
     4.6980   6.3514   9.1996   9.9869  10.0417  10.3739  10.3995

          k = 0.0000 0.1283-0.3137 (  4070 PWs)   bands (ev):

   -40.1041 -40.1041 -19.0303 -19.0303 -18.8829 -18.8829 -18.8707 -18.8707
     5.4632   5.4632   9.5527   9.5527  10.1844  10.1847  10.4365

          k = 0.0000 0.2566 0.0000 (  4069 PWs)   bands (ev):

   -40.1192 -40.0681 -19.1655 -19.0057 -18.9486 -18.9283 -18.8511 -18.8414
     4.7752   7.8995   8.6808   9.3798  10.2401  10.5574  10.6466

          k = 0.0000 0.2566 0.1046 (  4071 PWs)   bands (ev):

   -40.1158 -40.0716 -19.1534 -18.9948 -18.9643 -18.9232 -18.8563 -18.8494
     4.9331   7.6291   8.6960   9.4276  10.1976  10.4083  10.6235

          k = 0.0000 0.2566 0.2091 (  4073 PWs)   bands (ev):

   -40.1065 -40.0809 -19.1190 -19.0142 -18.9556 -18.9091 -18.8745 -18.8705
     5.3892   6.9099   8.9138   9.5189   9.9232  10.2228  10.6522

          k = 0.0000 0.2566-0.3137 (  4064 PWs)   bands (ev):

   -40.0937 -40.0937 -19.0686 -19.0686 -18.9135 -18.9135 -18.8899 -18.8899
     6.0865   6.0865   9.2852   9.2853   9.9676   9.9677  10.7906

          k = 0.0000 0.3849 0.0000 (  4090 PWs)   bands (ev):

   -40.1003 -40.0634 -19.1074 -19.0996 -19.0376 -18.9561 -18.8737 -18.8665
     5.8644   8.1834   8.3323   8.9104  10.2095  10.2191  10.3538

          k = 0.0000 0.3849 0.1046 (  4081 PWs)   bands (ev):

   -40.0979 -40.0659 -19.1422 -19.0663 -19.0353 -18.9501 -18.8744 -18.8726
     5.9830   7.9475   8.4458   8.9794  10.0144  10.2963  10.4413

          k = 0.0000 0.3849 0.2091 (  4079 PWs)   bands (ev):

   -40.0911 -40.0726 -19.1539 -19.1011 -18.9763 -18.9338 -18.8890 -18.8868
     6.3232   7.4289   8.7067   9.0872   9.8499  10.1420  10.6932

          k = 0.0000 0.3849-0.3137 (  4070 PWs)   bands (ev):

   -40.0819 -40.0819 -19.1374 -19.1374 -18.9216 -18.9216 -18.9115 -18.9115
     6.8363   6.8363   9.0007   9.0007   9.8944   9.8945  11.0731

          k = 0.0000 0.5132 0.0000 (  4082 PWs)   bands (ev):

   -40.0859 -40.0624 -19.1612 -19.0938 -19.0560 -18.9737 -18.9082 -18.8769
     6.9592   7.9232   8.1455   8.6006  10.0151  10.1852  10.4778

          k = 0.0000 0.5132 0.1046 (  4078 PWs)   bands (ev):

   -40.0843 -40.0640 -19.1798 -19.1154 -19.0219 -18.9673 -18.9016 -18.8835
     6.9843   7.8123   8.3139   8.6364  10.0662  10.2985  10.3721

          k = 0.0000 0.5132 0.2091 (  4076 PWs)   bands (ev):

   -40.0800 -40.0683 -19.1970 -19.1565 -18.9650 -18.9497 -18.9013 -18.8991
     7.0879   7.5701   8.6218   8.8012  10.0688  10.1610  10.6281

          k = 0.0000 0.5132-0.3137 (  4086 PWs)   bands (ev):

   -40.0741 -40.0741 -19.1888 -19.1888 -18.9256 -18.9256 -18.9198 -18.9198
     7.2952   7.2952   8.8631   8.8631  10.0243  10.0244  11.1400

          k = 0.1111 0.1925 0.0000 (  4059 PWs)   bands (ev):

   -40.1239 -40.0697 -19.1790 -18.9720 -18.9472 -18.9007 -18.8532 -18.8347
     4.5329   7.7594   8.7992   9.5178  10.3379  10.5556  10.9504

          k = 0.1111 0.1925 0.1046 (  4065 PWs)   bands (ev):

   -40.1203 -40.0733 -19.1622 -18.9629 -18.9530 -18.9087 -18.8581 -18.8431
     4.6970   7.4851   8.7960   9.5604  10.3298  10.3755  10.6462

          k = 0.1111 0.1925 0.2091 (  4058 PWs)   bands (ev):

   -40.1104 -40.0833 -19.1162 -18.9902 -18.9383 -18.9084 -18.8708 -18.8659
     5.1710   6.7490   8.9921   9.6535   9.9554  10.2495  10.6009

          k = 0.1111 0.1925-0.3137 (  4064 PWs)   bands (ev):

   -40.0969 -40.0969 -19.0529 -19.0529 -18.9084 -18.9084 -18.8842 -18.8842
     5.8956   5.8956   9.3736   9.3737  10.0021  10.0023  10.6894

          k = 0.1111 0.3208 0.0000 (  4073 PWs)   bands (ev):

   -40.1068 -40.0647 -19.1281 -19.0523 -19.0176 -18.9417 -18.8751 -18.8614
     5.4671   8.2443   8.4699   8.9991  10.1435  10.1827  10.5573

          k = 0.1111 0.3208 0.1046 (  4072 PWs)   bands (ev):

   -40.1040 -40.0675 -19.1341 -19.0407 -19.0142 -18.9445 -18.8819 -18.8612
     5.6055   7.9782   8.5415   9.0608  10.0355  10.2517  10.5089

          k = 0.1111 0.3208 0.2091 (  4075 PWs)   bands (ev):

   -40.0963 -40.0752 -19.1304 -19.0678 -18.9707 -18.9386 -18.8969 -18.8727
     6.0050   7.3326   8.7949   9.1930   9.8214  10.0791  10.6637

          k = 0.1111 0.3208-0.3137 (  4078 PWs)   bands (ev):

   -40.0858 -40.0858 -19.1056 -19.1056 -18.9348 -18.9348 -18.8982 -18.8982
     6.6140   6.6140   9.1167   9.1168   9.8059   9.8060  10.9607

          k = 0.1111 0.4491 0.0000 (  4071 PWs)   bands (ev):

   -40.0896 -40.0623 -19.1294 -19.0713 -19.0703 -18.9791 -18.8978 -18.8928
     6.6040   8.2125   8.2485   8.6628   9.9738  10.2326  10.3690

          k = 0.1111 0.4491 0.1046 (  4088 PWs)   bands (ev):

   -40.0878 -40.0641 -19.1521 -19.0952 -19.0287 -18.9738 -18.9057 -18.8849
     6.6863   8.0222   8.3941   8.7580   9.9095  10.1721  10.4312

          k = 0.1111 0.4491 0.2091 (  4076 PWs)   bands (ev):

   -40.0828 -40.0691 -19.1702 -19.1318 -18.9856 -18.9491 -18.9206 -18.8825
     6.9224   7.6783   8.6622   8.9334   9.7771   9.9452  10.6797

          k = 0.1111 0.4491-0.3137 (  4078 PWs)   bands (ev):

   -40.0760 -40.0760 -19.1622 -19.1622 -18.9563 -18.9563 -18.9013 -18.9013
     7.2769   7.2769   8.9378   8.9378   9.7362   9.7362  11.0863

          k = 0.1111 0.5774 0.0000 (  4077 PWs)   bands (ev):

   -40.0813 -40.0629 -19.1599 -19.0923 -19.0379 -18.9936 -18.9218 -18.8997
     7.3840   7.9040   8.1734   8.4928   9.9514  10.0516  10.5636

          k = 0.1111 0.5774 0.1046 (  4077 PWs)   bands (ev):

   -40.0801 -40.0641 -19.1754 -19.1140 -19.0205 -18.9766 -18.9219 -18.8962
     7.3615   7.8671   8.3514   8.5260   9.9591  10.0224  10.5738

          k = 0.1111 0.5774 0.2091 (  4077 PWs)   bands (ev):

   -40.0767 -40.0675 -19.1921 -19.1552 -18.9936 -18.9384 -18.9356 -18.8888
     7.3852   7.7151   8.7041   8.7270   9.8281   9.8931  10.7764

          k = 0.1111 0.5774-0.3137 (  4086 PWs)   bands (ev):

   -40.0721 -40.0721 -19.1858 -19.1858 -18.9650 -18.9650 -18.9007 -18.9007
     7.5171   7.5171   8.9143   8.9143   9.7211   9.7211  11.1890

          k = 0.2222 0.3849 0.0000 (  4095 PWs)   bands (ev):

   -40.0910 -40.0623 -19.0915 -19.0757 -19.0745 -18.9760 -18.9180 -18.8940
     6.4803   8.3326   8.4944   8.5847   9.8739  10.2808  10.2868

          k = 0.2222 0.3849 0.1046 (  4094 PWs)   bands (ev):

   -40.0891 -40.0642 -19.1220 -19.0972 -19.0161 -18.9878 -18.9229 -18.8836
     6.5842   8.1871   8.5819   8.6506   9.8391  10.1337  10.3331

          k = 0.2222 0.3849 0.2091 (  4087 PWs)   bands (ev):

   -40.0839 -40.0695 -19.1448 -19.1179 -18.9921 -18.9719 -18.9245 -18.8779
     6.8804   7.8038   8.7975   8.8289   9.6990   9.8086  10.5471

          k = 0.2222 0.3849-0.3137 (  4072 PWs)   bands (ev):

   -40.0767 -40.0767 -19.1407 -19.1407 -18.9783 -18.9783 -18.8955 -18.8955
     7.3189   7.3189   8.9674   8.9674   9.5796   9.5796  10.9468

          k = 0.2222 0.5132 0.0000 (  4091 PWs)   bands (ev):

   -40.0780 -40.0635 -19.1293 -19.0740 -19.0240 -19.0221 -18.9474 -18.9327
     7.5038   8.2600   8.2903   8.4243   9.7878   9.9601  10.6151

          k = 0.2222 0.5132 0.1046 (  4085 PWs)   bands (ev):

   -40.0770 -40.0645 -19.1391 -19.1001 -19.0412 -18.9829 -18.9551 -18.9104
     7.5531   8.1804   8.3847   8.5633   9.7262   9.8094  10.6332

          k = 0.2222 0.5132 0.2091 (  4103 PWs)   bands (ev):

   -40.0744 -40.0671 -19.1575 -19.1347 -19.0378 -18.9873 -18.9221 -18.8884
     7.6897   8.0526   8.6280   8.8429   9.4498   9.5442  10.7522

          k = 0.2222 0.5132-0.3137 (  4090 PWs)   bands (ev):

   -40.0707 -40.0707 -19.1579 -19.1579 -19.0143 -19.0143 -18.8914 -18.8914
     7.8762   7.8762   8.9583   8.9583   9.2682   9.2682  11.0554

          k = 0.3333 0.5774 0.0000 (  4077 PWs)   bands (ev):

   -40.0687 -40.0687 -19.1160 -19.0546 -19.0546 -18.9875 -18.9761 -18.9761
     8.1583   8.1583   8.2603   8.3474   9.7600   9.7600  10.7703

          k = 0.3333 0.5774 0.1046 (  4092 PWs)   bands (ev):

   -40.0687 -40.0687 -19.1075 -19.0869 -19.0869 -18.9962 -18.9433 -18.9433
     8.2389   8.2389   8.2933   8.3789   9.6260   9.6261  10.7705

          k = 0.3333 0.5774 0.2091 (  4083 PWs)   bands (ev):

   -40.0687 -40.0687 -19.1260 -19.1260 -19.0842 -19.0199 -18.9033 -18.9033
     8.3717   8.4346   8.4567   8.4567   9.3148   9.3148  10.8326

          k = 0.3333 0.5774-0.3137 (  4128 PWs)   bands (ev):

   -40.0687 -40.0687 -19.1410 -19.1410 -19.0522 -19.0522 -18.8879 -18.8879
     8.4379   8.4379   8.6531   8.6531   9.0769   9.0769  11.0775

     the Fermi energy is     8.8040 ev

!    total energy              =    -306.87299798 Ry
     total all-electron energy =     -3050.013769 Ry
     estimated scf accuracy    <          5.4E-09 Ry
     smearing contrib. (-TS)   =       0.00004642 Ry
     internal energy E=F+TS    =    -306.87304441 Ry

     The total energy is F=E-TS. E is the sum of the following terms:
     one-electron contribution =     -74.40630316 Ry
     hartree contribution      =      42.28290457 Ry
     xc contribution           =     -34.52676447 Ry
     ewald contribution        =    -126.46581261 Ry
     one-center paw contrib.   =    -113.75706874 Ry

     convergence has been achieved in   9 iterations

     Writing all to output data dir sc_smearing.out/scandium.save/

     init_run     :      0.54s CPU      0.56s WALL (       1 calls)
     electrons    :     13.53s CPU     14.27s WALL (       1 calls)

     Called by init_run:
     wfcinit      :      0.32s CPU      0.32s WALL (       1 calls)
     potinit      :      0.08s CPU      0.08s WALL (       1 calls)
     hinit0       :      0.13s CPU      0.13s WALL (       1 calls)

     Called by electrons:
     c_bands      :     12.07s CPU     12.73s WALL (      10 calls)
     sum_band     :      1.09s CPU      1.13s WALL (      10 calls)
     v_of_rho     :      0.01s CPU      0.01s WALL (      10 calls)
     newd         :      0.09s CPU      0.10s WALL (      10 calls)
     PAW_pot      :      0.32s CPU      0.32s WALL (      10 calls)
     mix_rho      :      0.01s CPU      0.01s WALL (      10 calls)

     Called by c_bands:
     init_us_2    :      0.13s CPU      0.14s WALL (    1008 calls)
     init_us_2:cp :      0.12s CPU      0.14s WALL (    1008 calls)
     cegterg      :     11.81s CPU     12.27s WALL (     482 calls)

     Called by *egterg:
     cdiaghg      :      1.36s CPU      1.41s WALL (    4559 calls)
     h_psi        :      7.86s CPU      8.20s WALL (    4657 calls)
     s_psi        :      0.51s CPU      0.53s WALL (    4657 calls)
     g_psi        :      0.05s CPU      0.05s WALL (    4127 calls)

     Called by h_psi:
     h_psi:calbec :      0.65s CPU      0.68s WALL (    4657 calls)
     vloc_psi     :      6.65s CPU      6.95s WALL (    4657 calls)
     add_vuspsi   :      0.51s CPU      0.53s WALL (    4657 calls)

     General routines
     calbec       :      0.77s CPU      0.81s WALL (    5137 calls)
     fft          :      0.02s CPU      0.02s WALL (      41 calls)
     ffts         :      0.00s CPU      0.00s WALL (      10 calls)
     fftw         :      6.86s CPU      7.17s WALL (   78426 calls)

     Parallel routines

     PWSCF        :     14.35s CPU     15.32s WALL


   This run was terminated on:  15:17:40  26Jul2023            

=------------------------------------------------------------------------------=
   JOB DONE.
=------------------------------------------------------------------------------=
