
     Program PWSCF v.7.2 starts on 26Jul2023 at 12:12:23 

     This program is part of the open-source Quantum ESPRESSO suite
     for quantum simulation of materials; please cite
         "P. Giannozzi et al., J. Phys.:Condens. Matter 21 395502 (2009);
         "P. Giannozzi et al., J. Phys.:Condens. Matter 29 465901 (2017);
         "P. Giannozzi et al., J. Chem. Phys. 152 154105 (2020);
          URL http://www.quantum-espresso.org", 
     in publications or presentations arising from this work. More details at
     http://www.quantum-espresso.org/quote

     Parallel version (MPI), running on    20 processors

     MPI processes distributed on     1 nodes
     317815 MiB available memory on the printing compute node when the environment starts

     Waiting for input...
     Reading input from standard input

     Current dimensions of program PWSCF are:
     Max number of different atomic species (ntypx) = 10
     Max number of k-points (npk) = 120000
     Max angular momentum in pseudopotentials (lmaxx) =  4
     file Sc.pz-spn-kjpaw_psl.1.0.0.UPF: wavefunction(s)  3S 3P 3D renormalized

     R & G space division:  proc/nbgrp/npool/nimage =      20
     Subspace diagonalization in iterative solution of the eigenvalue problem:
     a serial algorithm will be used


     Parallelization info
     --------------------
     sticks:   dense  smooth     PW     G-vecs:    dense   smooth      PW
     Min          27      27      8                  805      805     132
     Max          28      28      9                  808      808     137
     Sum         547     547    163                16131    16131    2707

     Using Slab Decomposition



     bravais-lattice index     =            4
     lattice parameter (alat)  =       6.2531  a.u.
     unit-cell volume          =     337.5249 (a.u.)^3
     number of atoms/cell      =            2
     number of atomic types    =            1
     number of electrons       =        22.00
     number of Kohn-Sham states=           15
     kinetic-energy cutoff     =      50.0000  Ry
     charge density cutoff     =     200.0000  Ry
     scf convergence threshold =      1.0E-08
     mixing beta               =       0.7000
     number of iterations used =            8  plain     mixing
     Exchange-correlation= SLA  PZ   NOGX NOGC
                           (   1   1   0   0   0   0   0)

     celldm(1)=   6.253104  celldm(2)=   0.000000  celldm(3)=   1.594000
     celldm(4)=   0.000000  celldm(5)=   0.000000  celldm(6)=   0.000000

     crystal axes: (cart. coord. in units of alat)
               a(1) = (   1.000000   0.000000   0.000000 )  
               a(2) = (  -0.500000   0.866025   0.000000 )  
               a(3) = (   0.000000   0.000000   1.594000 )  

     reciprocal axes: (cart. coord. in units 2 pi/alat)
               b(1) = (  1.000000  0.577350 -0.000000 )  
               b(2) = (  0.000000  1.154701  0.000000 )  
               b(3) = (  0.000000 -0.000000  0.627353 )  


     PseudoPot. # 1 for Sc read from file:
     ../../Sc.pz-spn-kjpaw_psl.1.0.0.UPF
     MD5 check sum: 1f9095df0bb42a6568b4e9f256ff075f
     Pseudo is Projector augmented-wave + core cor, Zval = 11.0
     Generated using 'atomic' code by A. Dal Corso  v.7.1
     Shape of augmentation charge: PSQ
     Using radial grid of 1173 points,  6 beta functions with: 
                l(1) =   0
                l(2) =   0
                l(3) =   1
                l(4) =   1
                l(5) =   2
                l(6) =   2
     Q(r) pseudized with 0 coefficients 


     atomic species   valence    mass     pseudopotential
        Sc            11.00    44.59600     Sc( 1.00)

     24 Sym. Ops., with inversion, found (12 have fractional translation)



   Cartesian axes

     site n.     atom                  positions (alat units)
         1           Sc  tau(   1) = (   0.0000000   0.0000000   0.0000000  )
         2           Sc  tau(   2) = (   0.5000000   0.2886751   0.7970000  )

     number of k points=    95  Marzari-Vanderbilt smearing, width (Ry)=  0.0200
                       cart. coord. in units 2pi/alat
        k(    1) = (   0.0000000   0.0000000   0.0000000), wk =   0.0017361
        k(    2) = (   0.0000000   0.0000000   0.0784191), wk =   0.0034722
        k(    3) = (   0.0000000   0.0000000   0.1568381), wk =   0.0034722
        k(    4) = (   0.0000000   0.0000000   0.2352572), wk =   0.0034722
        k(    5) = (   0.0000000   0.0000000  -0.3136763), wk =   0.0017361
        k(    6) = (   0.0000000   0.0962250   0.0000000), wk =   0.0104167
        k(    7) = (   0.0000000   0.0962250   0.0784191), wk =   0.0208333
        k(    8) = (   0.0000000   0.0962250   0.1568381), wk =   0.0208333
        k(    9) = (   0.0000000   0.0962250   0.2352572), wk =   0.0208333
        k(   10) = (   0.0000000   0.0962250  -0.3136763), wk =   0.0104167
        k(   11) = (   0.0000000   0.1924501   0.0000000), wk =   0.0104167
        k(   12) = (   0.0000000   0.1924501   0.0784191), wk =   0.0208333
        k(   13) = (   0.0000000   0.1924501   0.1568381), wk =   0.0208333
        k(   14) = (   0.0000000   0.1924501   0.2352572), wk =   0.0208333
        k(   15) = (   0.0000000   0.1924501  -0.3136763), wk =   0.0104167
        k(   16) = (   0.0000000   0.2886751   0.0000000), wk =   0.0104167
        k(   17) = (   0.0000000   0.2886751   0.0784191), wk =   0.0208333
        k(   18) = (   0.0000000   0.2886751   0.1568381), wk =   0.0208333
        k(   19) = (   0.0000000   0.2886751   0.2352572), wk =   0.0208333
        k(   20) = (   0.0000000   0.2886751  -0.3136763), wk =   0.0104167
        k(   21) = (   0.0000000   0.3849002   0.0000000), wk =   0.0104167
        k(   22) = (   0.0000000   0.3849002   0.0784191), wk =   0.0208333
        k(   23) = (   0.0000000   0.3849002   0.1568381), wk =   0.0208333
        k(   24) = (   0.0000000   0.3849002   0.2352572), wk =   0.0208333
        k(   25) = (   0.0000000   0.3849002  -0.3136763), wk =   0.0104167
        k(   26) = (   0.0000000   0.4811252   0.0000000), wk =   0.0104167
        k(   27) = (   0.0000000   0.4811252   0.0784191), wk =   0.0208333
        k(   28) = (   0.0000000   0.4811252   0.1568381), wk =   0.0208333
        k(   29) = (   0.0000000   0.4811252   0.2352572), wk =   0.0208333
        k(   30) = (   0.0000000   0.4811252  -0.3136763), wk =   0.0104167
        k(   31) = (   0.0000000  -0.5773503   0.0000000), wk =   0.0052083
        k(   32) = (   0.0000000  -0.5773503   0.0784191), wk =   0.0104167
        k(   33) = (   0.0000000  -0.5773503   0.1568381), wk =   0.0104167
        k(   34) = (   0.0000000  -0.5773503   0.2352572), wk =   0.0104167
        k(   35) = (   0.0000000  -0.5773503  -0.3136763), wk =   0.0052083
        k(   36) = (   0.0833333   0.1443376   0.0000000), wk =   0.0104167
        k(   37) = (   0.0833333   0.1443376   0.0784191), wk =   0.0208333
        k(   38) = (   0.0833333   0.1443376   0.1568381), wk =   0.0208333
        k(   39) = (   0.0833333   0.1443376   0.2352572), wk =   0.0208333
        k(   40) = (   0.0833333   0.1443376  -0.3136763), wk =   0.0104167
        k(   41) = (   0.0833333   0.2405626   0.0000000), wk =   0.0208333
        k(   42) = (   0.0833333   0.2405626   0.0784191), wk =   0.0416667
        k(   43) = (   0.0833333   0.2405626   0.1568381), wk =   0.0416667
        k(   44) = (   0.0833333   0.2405626   0.2352572), wk =   0.0416667
        k(   45) = (   0.0833333   0.2405626  -0.3136763), wk =   0.0208333
        k(   46) = (   0.0833333   0.3367877   0.0000000), wk =   0.0208333
        k(   47) = (   0.0833333   0.3367877   0.0784191), wk =   0.0416667
        k(   48) = (   0.0833333   0.3367877   0.1568381), wk =   0.0416667
        k(   49) = (   0.0833333   0.3367877   0.2352572), wk =   0.0416667
        k(   50) = (   0.0833333   0.3367877  -0.3136763), wk =   0.0208333
        k(   51) = (   0.0833333   0.4330127   0.0000000), wk =   0.0208333
        k(   52) = (   0.0833333   0.4330127   0.0784191), wk =   0.0416667
        k(   53) = (   0.0833333   0.4330127   0.1568381), wk =   0.0416667
        k(   54) = (   0.0833333   0.4330127   0.2352572), wk =   0.0416667
        k(   55) = (   0.0833333   0.4330127  -0.3136763), wk =   0.0208333
        k(   56) = (   0.0833333   0.5292377   0.0000000), wk =   0.0208333
        k(   57) = (   0.0833333   0.5292377   0.0784191), wk =   0.0416667
        k(   58) = (   0.0833333   0.5292377   0.1568381), wk =   0.0416667
        k(   59) = (   0.0833333   0.5292377   0.2352572), wk =   0.0416667
        k(   60) = (   0.0833333   0.5292377  -0.3136763), wk =   0.0208333
        k(   61) = (   0.1666667   0.2886751   0.0000000), wk =   0.0104167
        k(   62) = (   0.1666667   0.2886751   0.0784191), wk =   0.0208333
        k(   63) = (   0.1666667   0.2886751   0.1568381), wk =   0.0208333
        k(   64) = (   0.1666667   0.2886751   0.2352572), wk =   0.0208333
        k(   65) = (   0.1666667   0.2886751  -0.3136763), wk =   0.0104167
        k(   66) = (   0.1666667   0.3849002   0.0000000), wk =   0.0208333
        k(   67) = (   0.1666667   0.3849002   0.0784191), wk =   0.0416667
        k(   68) = (   0.1666667   0.3849002   0.1568381), wk =   0.0416667
        k(   69) = (   0.1666667   0.3849002   0.2352572), wk =   0.0416667
        k(   70) = (   0.1666667   0.3849002  -0.3136763), wk =   0.0208333
        k(   71) = (   0.1666667   0.4811252   0.0000000), wk =   0.0208333
        k(   72) = (   0.1666667   0.4811252   0.0784191), wk =   0.0416667
        k(   73) = (   0.1666667   0.4811252   0.1568381), wk =   0.0416667
        k(   74) = (   0.1666667   0.4811252   0.2352572), wk =   0.0416667
        k(   75) = (   0.1666667   0.4811252  -0.3136763), wk =   0.0208333
        k(   76) = (   0.1666667   0.5773503   0.0000000), wk =   0.0104167
        k(   77) = (   0.1666667   0.5773503   0.0784191), wk =   0.0208333
        k(   78) = (   0.1666667   0.5773503   0.1568381), wk =   0.0208333
        k(   79) = (   0.1666667   0.5773503   0.2352572), wk =   0.0208333
        k(   80) = (   0.1666667   0.5773503  -0.3136763), wk =   0.0104167
        k(   81) = (   0.2500000   0.4330127   0.0000000), wk =   0.0104167
        k(   82) = (   0.2500000   0.4330127   0.0784191), wk =   0.0208333
        k(   83) = (   0.2500000   0.4330127   0.1568381), wk =   0.0208333
        k(   84) = (   0.2500000   0.4330127   0.2352572), wk =   0.0208333
        k(   85) = (   0.2500000   0.4330127  -0.3136763), wk =   0.0104167
        k(   86) = (   0.2500000   0.5292377   0.0000000), wk =   0.0208333
        k(   87) = (   0.2500000   0.5292377   0.0784191), wk =   0.0416667
        k(   88) = (   0.2500000   0.5292377   0.1568381), wk =   0.0416667
        k(   89) = (   0.2500000   0.5292377   0.2352572), wk =   0.0416667
        k(   90) = (   0.2500000   0.5292377  -0.3136763), wk =   0.0208333
        k(   91) = (   0.3333333   0.5773503   0.0000000), wk =   0.0034722
        k(   92) = (   0.3333333   0.5773503   0.0784191), wk =   0.0069444
        k(   93) = (   0.3333333   0.5773503   0.1568381), wk =   0.0069444
        k(   94) = (   0.3333333   0.5773503   0.2352572), wk =   0.0069444
        k(   95) = (   0.3333333   0.5773503  -0.3136763), wk =   0.0034722

     Dense  grid:    16131 G-vectors     FFT dimensions: (  30,  30,  48)

     Estimated max dynamical RAM per process >       6.22 MB

     Estimated total dynamical RAM >     124.48 MB

     Check: negative core charge=   -0.000057

     Initial potential from superposition of free atoms

     starting charge      21.9956, renormalised to      22.0000
     Starting wfcs are   20 randomized atomic wfcs
     Checking if some PAW data can be deallocated... 

     total cpu time spent up to now is        0.9 secs

     Self-consistent Calculation

     iteration #  1     ecut=    50.00 Ry     beta= 0.70
     Davidson diagonalization with overlap
     ethr =  1.00E-02,  avg # of iterations =  3.1

     Threshold (ethr) on eigenvalues was too large:
     Diagonalizing with lowered threshold

     Davidson diagonalization with overlap
     c_bands:  1 eigenvalues not converged
     c_bands:  2 eigenvalues not converged
     c_bands:  1 eigenvalues not converged
     c_bands:  1 eigenvalues not converged
     c_bands:  1 eigenvalues not converged
     c_bands:  2 eigenvalues not converged
     c_bands:  4 eigenvalues not converged
     c_bands:  2 eigenvalues not converged
     c_bands:  2 eigenvalues not converged
     c_bands:  3 eigenvalues not converged
     c_bands:  3 eigenvalues not converged
     c_bands:  1 eigenvalues not converged
     c_bands:  3 eigenvalues not converged
     c_bands:  3 eigenvalues not converged
     c_bands:  1 eigenvalues not converged
     c_bands:  5 eigenvalues not converged
     c_bands:  2 eigenvalues not converged
     ethr =  8.00E-06,  avg # of iterations = 16.2

     total cpu time spent up to now is        5.5 secs

     total energy              =    -306.85879457 Ry
     estimated scf accuracy    <       0.02120138 Ry

     iteration #  2     ecut=    50.00 Ry     beta= 0.70
     Davidson diagonalization with overlap
     ethr =  9.64E-05,  avg # of iterations =  4.2

     total cpu time spent up to now is        6.8 secs

     total energy              =    -306.86413526 Ry
     estimated scf accuracy    <       0.00315621 Ry

     iteration #  3     ecut=    50.00 Ry     beta= 0.70
     Davidson diagonalization with overlap
     ethr =  1.43E-05,  avg # of iterations =  4.8

     total cpu time spent up to now is        8.1 secs

     total energy              =    -306.86507278 Ry
     estimated scf accuracy    <       0.00009321 Ry

     iteration #  4     ecut=    50.00 Ry     beta= 0.70
     Davidson diagonalization with overlap
     c_bands:  1 eigenvalues not converged
     c_bands:  2 eigenvalues not converged
     c_bands:  2 eigenvalues not converged
     c_bands:  1 eigenvalues not converged
     ethr =  4.24E-07,  avg # of iterations = 10.3

     total cpu time spent up to now is       10.3 secs

     total energy              =    -306.86526759 Ry
     estimated scf accuracy    <       0.00006136 Ry

     iteration #  5     ecut=    50.00 Ry     beta= 0.70
     Davidson diagonalization with overlap
     c_bands:  1 eigenvalues not converged
     ethr =  2.79E-07,  avg # of iterations =  5.7

     total cpu time spent up to now is       11.8 secs

     total energy              =    -306.86528995 Ry
     estimated scf accuracy    <       0.00001368 Ry

     iteration #  6     ecut=    50.00 Ry     beta= 0.70
     Davidson diagonalization with overlap
     ethr =  6.22E-08,  avg # of iterations =  5.3

     total cpu time spent up to now is       13.1 secs

     total energy              =    -306.86529543 Ry
     estimated scf accuracy    <       0.00000024 Ry

     iteration #  7     ecut=    50.00 Ry     beta= 0.70
     Davidson diagonalization with overlap
     c_bands:  1 eigenvalues not converged
     c_bands:  2 eigenvalues not converged
     ethr =  1.09E-09,  avg # of iterations = 14.2

     total cpu time spent up to now is       15.5 secs

     End of self-consistent calculation

          k = 0.0000 0.0000 0.0000 (  1997 PWs)   bands (ev):

   -40.1402 -40.0759 -19.2216 -18.8877 -18.8877 -18.8289 -18.8289 -18.8121
     3.7531   7.1494   9.3030  10.3616  10.3616  10.4717  10.7646

          k = 0.0000 0.0000 0.0784 (  1973 PWs)   bands (ev):

   -40.1378 -40.0784 -19.2063 -18.8854 -18.8854 -18.8312 -18.8312 -18.8280
     3.8544   6.9950   9.2739  10.3190  10.3190  10.4067  10.7091

          k = 0.0000 0.0000 0.1568 (  1996 PWs)   bands (ev):

   -40.1308 -40.0854 -19.1632 -18.8791 -18.8791 -18.8737 -18.8376 -18.8376
     4.1515   6.5467   9.2852  10.2244  10.2568  10.2568  10.5744

          k = 0.0000 0.0000 0.2353 (  2008 PWs)   bands (ev):

   -40.1205 -40.0958 -19.0981 -18.9413 -18.8697 -18.8697 -18.8472 -18.8472
     4.6236   5.9090   9.4275   9.9617  10.2448  10.2450  10.4222

          k = 0.0000 0.0000-0.3137 (  2014 PWs)   bands (ev):

   -40.1082 -40.1082 -19.0202 -19.0202 -18.8585 -18.8585 -18.8585 -18.8585
     5.2314   5.2314   9.6745   9.6746  10.3026  10.3026  10.3027

          k = 0.0000 0.0962 0.0000 (  2001 PWs)   bands (ev):

   -40.1369 -40.0745 -19.2128 -18.9058 -18.8937 -18.8481 -18.8316 -18.8158
     3.9045   7.2795   9.1791  10.0928  10.4708  10.6409  10.7106

          k = 0.0000 0.0962 0.0784 (  1991 PWs)   bands (ev):

   -40.1345 -40.0769 -19.1985 -18.9032 -18.8913 -18.8562 -18.8340 -18.8253
     4.0043   7.1243   9.1530  10.0890  10.4165  10.5139  10.7844

          k = 0.0000 0.0962 0.1568 (  1998 PWs)   bands (ev):

   -40.1278 -40.0837 -19.1579 -18.8963 -18.8896 -18.8847 -18.8417 -18.8408
     4.2972   6.6739   9.1783  10.0948  10.2433  10.3434  10.6564

          k = 0.0000 0.0962 0.2353 (  1998 PWs)   bands (ev):

   -40.1177 -40.0939 -19.0968 -18.9510 -18.8840 -18.8746 -18.8560 -18.8509
     4.7631   6.0368   9.3413   9.9288  10.1415  10.3284  10.3860

          k = 0.0000 0.0962-0.3137 (  2006 PWs)   bands (ev):

   -40.1058 -40.1058 -19.0241 -19.0241 -18.8703 -18.8703 -18.8627 -18.8627
     5.3641   5.3641   9.6108   9.6109  10.2417  10.2421  10.3864

          k = 0.0000 0.1925 0.0000 (  2004 PWs)   bands (ev):

   -40.1277 -40.0710 -19.1875 -18.9561 -18.9098 -18.8994 -18.8391 -18.8270
     4.3439   7.6282   8.8955   9.6821  10.4154  10.7881  10.8214

          k = 0.0000 0.1925 0.0784 (  1996 PWs)   bands (ev):

   -40.1255 -40.0732 -19.1764 -18.9519 -18.9089 -18.9071 -18.8419 -18.8333
     4.4389   7.4728   8.8810   9.7015  10.4066  10.5507  10.6383

          k = 0.0000 0.1925 0.1568 (  1994 PWs)   bands (ev):

   -40.1194 -40.0793 -19.1447 -18.9453 -18.9322 -18.8994 -18.8498 -18.8496
     4.7180   7.0191   8.9447   9.7581  10.1821  10.4153  10.5481

          k = 0.0000 0.1925 0.2353 (  1998 PWs)   bands (ev):

   -40.1102 -40.0885 -19.0973 -18.9859 -18.9186 -18.8880 -18.8719 -18.8611
     5.1628   6.3905   9.1476   9.7466   9.9656  10.2671  10.5414

          k = 0.0000 0.1925-0.3137 (  2010 PWs)   bands (ev):

   -40.0994 -40.0994 -19.0413 -19.0413 -18.8959 -18.8959 -18.8746 -18.8746
     5.7392   5.7392   9.4440   9.4441  10.0866  10.0866  10.6125

          k = 0.0000 0.2887 0.0000 (  2010 PWs)   bands (ev):

   -40.1145 -40.0667 -19.1496 -19.0253 -18.9673 -18.9310 -18.8502 -18.8458
     5.0261   8.0360   8.5902   9.2574  10.1958  10.4761  10.5771

          k = 0.0000 0.2887 0.0784 (  2016 PWs)   bands (ev):

   -40.1127 -40.0685 -19.1462 -19.0166 -18.9765 -18.9279 -18.8533 -18.8491
     5.1113   7.8854   8.6031   9.2881  10.1687  10.4162  10.5901

          k = 0.0000 0.2887 0.1568 (  2005 PWs)   bands (ev):

   -40.1075 -40.0737 -19.1343 -19.0124 -18.9815 -18.9192 -18.8621 -18.8607
     5.3621   7.4488   8.7221   9.3646  10.0234  10.3054  10.6395

          k = 0.0000 0.2887 0.2353 (  2014 PWs)   bands (ev):

   -40.0998 -40.0815 -19.1124 -19.0449 -18.9499 -18.9061 -18.8827 -18.8753
     5.7617   6.8694   8.9492   9.4022   9.8647  10.1360  10.7399

          k = 0.0000 0.2887-0.3137 (  2006 PWs)   bands (ev):

   -40.0906 -40.0906 -19.0811 -19.0811 -18.9139 -18.9139 -18.8907 -18.8907
     6.2804   6.2804   9.2212   9.2212   9.9392   9.9393  10.8924

          k = 0.0000 0.3849 0.0000 (  2002 PWs)   bands (ev):

   -40.1003 -40.0633 -19.1050 -19.0951 -19.0331 -18.9514 -18.8710 -18.8617
     5.8666   8.1974   8.3433   8.9210  10.2210  10.2290  10.3653

          k = 0.0000 0.3849 0.0784 (  2016 PWs)   bands (ev):

   -40.0989 -40.0648 -19.1316 -19.0643 -19.0375 -18.9481 -18.8710 -18.8652
     5.9338   8.0533   8.4139   8.9626  10.0766  10.3073  10.4146

          k = 0.0000 0.3849 0.1568 (  2015 PWs)   bands (ev):

   -40.0949 -40.0688 -19.1483 -19.0769 -19.0038 -18.9384 -18.8752 -18.8750
     6.1307   7.7185   8.5754   9.0509   9.9312  10.2568  10.5593

          k = 0.0000 0.3849 0.2353 (  2016 PWs)   bands (ev):

   -40.0889 -40.0748 -19.1487 -19.1074 -18.9580 -18.9239 -18.8902 -18.8896
     6.4423   7.2879   8.7977   9.1051   9.8439  10.0879  10.7889

          k = 0.0000 0.3849-0.3137 (  2020 PWs)   bands (ev):

   -40.0818 -40.0818 -19.1338 -19.1338 -18.9184 -18.9184 -18.9068 -18.9068
     6.8420   6.8420   9.0129   9.0129   9.9049   9.9050  11.0830

          k = 0.0000 0.4811 0.0000 (  2016 PWs)   bands (ev):

   -40.0885 -40.0623 -19.1465 -19.0801 -19.0638 -18.9661 -18.8982 -18.8705
     6.7204   8.0318   8.1877   8.6693  10.0582  10.2242  10.4341

          k = 0.0000 0.4811 0.0784 (  2018 PWs)   bands (ev):

   -40.0875 -40.0633 -19.1607 -19.0939 -19.0390 -18.9626 -18.8948 -18.8741
     6.7525   7.9347   8.2868   8.7005  10.0627  10.2861  10.3878

          k = 0.0000 0.4811 0.1568 (  2013 PWs)   bands (ev):

   -40.0847 -40.0661 -19.1793 -19.1224 -18.9948 -18.9523 -18.8911 -18.8846
     6.8504   7.7378   8.4799   8.7983  10.0487  10.2646  10.4683

          k = 0.0000 0.4811 0.2353 (  2026 PWs)   bands (ev):

   -40.0804 -40.0704 -19.1857 -19.1532 -18.9514 -18.9369 -18.9002 -18.8970
     7.0136   7.4886   8.7103   8.9090   9.9918  10.1132  10.7608

          k = 0.0000 0.4811-0.3137 (  2012 PWs)   bands (ev):

   -40.0754 -40.0754 -19.1762 -19.1762 -18.9185 -18.9185 -18.9172 -18.9172
     7.2341   7.2341   8.8925   8.8925   9.9948   9.9949  11.1441

          k = 0.0000-0.5774 0.0000 (  2008 PWs)   bands (ev):

   -40.0835 -40.0625 -19.1654 -19.0970 -19.0444 -18.9714 -18.9124 -18.8737
     7.2377   7.7937   8.1350   8.5538   9.9973  10.1750  10.5332

          k = 0.0000-0.5774 0.0784 (  2016 PWs)   bands (ev):

   -40.0827 -40.0633 -19.1766 -19.1097 -19.0255 -18.9678 -18.9072 -18.8774
     7.2182   7.7702   8.2449   8.5525  10.0511  10.2403  10.4622

          k = 0.0000-0.5774 0.1568 (  2010 PWs)   bands (ev):

   -40.0805 -40.0656 -19.1937 -19.1388 -18.9861 -18.9573 -18.8993 -18.8881
     7.2048   7.6769   8.5060   8.6058  10.1447  10.2826  10.4329

          k = 0.0000-0.5774 0.2353 (  2030 PWs)   bands (ev):

   -40.0770 -40.0690 -19.2005 -19.1698 -18.9465 -18.9416 -18.9041 -18.9005
     7.2490   7.5206   8.7444   8.7738  10.0989  10.1515  10.7432

          k = 0.0000-0.5774-0.3137 (  2032 PWs)   bands (ev):

   -40.0730 -40.0730 -19.1922 -19.1922 -18.9229 -18.9229 -18.9163 -18.9163
     7.3615   7.3615   8.8609   8.8609  10.0674  10.0677  11.1525

          k = 0.0833 0.1443 0.0000 (  1999 PWs)   bands (ev):

   -40.1306 -40.0721 -19.1957 -18.9366 -18.9127 -18.8763 -18.8392 -18.8233
     4.2001   7.5211   8.9804   9.7940  10.4959  10.7004  10.7702

          k = 0.0833 0.1443 0.0784 (  1996 PWs)   bands (ev):

   -40.1284 -40.0743 -19.1835 -18.9329 -18.9122 -18.8843 -18.8418 -18.8299
     4.2968   7.3654   8.9613   9.8089  10.5052  10.5197  10.5937

          k = 0.0833 0.1443 0.1568 (  1988 PWs)   bands (ev):

   -40.1221 -40.0807 -19.1485 -18.9260 -18.9224 -18.8943 -18.8491 -18.8458
     4.5809   6.9117   9.0125   9.8572  10.2084  10.4440  10.5017

          k = 0.0833 0.1443 0.2353 (  2006 PWs)   bands (ev):

   -40.1126 -40.0902 -19.0963 -18.9734 -18.9068 -18.8876 -18.8644 -18.8599
     5.0331   6.2786   9.2050   9.8227   9.9988  10.2964  10.4872

          k = 0.0833 0.1443-0.3137 (  2004 PWs)   bands (ev):

   -40.1014 -40.1014 -19.0344 -19.0344 -18.8890 -18.8890 -18.8711 -18.8711
     5.6188   5.6188   9.4983   9.4984  10.1273  10.1275  10.5433

          k = 0.0833 0.2406 0.0000 (  2010 PWs)   bands (ev):

   -40.1194 -40.0682 -19.1640 -18.9917 -18.9578 -18.9105 -18.8522 -18.8383
     4.7630   7.9187   8.7038   9.3832  10.2664  10.4719  10.7643

          k = 0.0833 0.2406 0.0784 (  2011 PWs)   bands (ev):

   -40.1175 -40.0701 -19.1568 -18.9857 -18.9618 -18.9137 -18.8554 -18.8416
     4.8527   7.7647   8.7016   9.4108  10.2757  10.3929  10.6866

          k = 0.0833 0.2406 0.1568 (  2008 PWs)   bands (ev):

   -40.1119 -40.0757 -19.1357 -18.9864 -18.9627 -18.9144 -18.8641 -18.8528
     5.1162   7.3127   8.7986   9.4861  10.0972  10.3117  10.6368

          k = 0.0833 0.2406 0.2353 (  2012 PWs)   bands (ev):

   -40.1036 -40.0840 -19.1030 -19.0208 -18.9379 -18.9078 -18.8774 -18.8705
     5.5365   6.7036   9.0221   9.5302   9.8829  10.1517  10.6886

          k = 0.0833 0.2406-0.3137 (  2010 PWs)   bands (ev):

   -40.0938 -40.0938 -19.0627 -19.0627 -18.9116 -18.9116 -18.8846 -18.8846
     6.0828   6.0828   9.3128   9.3128   9.9573   9.9574  10.7938

          k = 0.0833 0.3368 0.0000 (  2015 PWs)   bands (ev):

   -40.1057 -40.0644 -19.1225 -19.0599 -19.0126 -18.9420 -18.8661 -18.8607
     5.5316   8.2385   8.4508   9.0066  10.1622  10.2160  10.5206

          k = 0.0833 0.3368 0.0784 (  2012 PWs)   bands (ev):

   -40.1041 -40.0660 -19.1294 -19.0461 -19.0161 -18.9418 -18.8709 -18.8595
     5.6081   8.0873   8.4948   9.0443  10.0727  10.2817  10.5035

          k = 0.0833 0.3368 0.1568 (  2014 PWs)   bands (ev):

   -40.0996 -40.0704 -19.1349 -19.0517 -18.9956 -18.9371 -18.8816 -18.8634
     5.8330   7.6881   8.6435   9.1343   9.9303  10.2309  10.5735

          k = 0.0833 0.3368 0.2353 (  2015 PWs)   bands (ev):

   -40.0930 -40.0772 -19.1281 -19.0803 -18.9575 -18.9263 -18.8955 -18.8770
     6.1904   7.1748   8.8692   9.2068   9.7964  10.0386  10.7629

          k = 0.0833 0.3368-0.3137 (  2010 PWs)   bands (ev):

   -40.0851 -40.0851 -19.1085 -19.1085 -18.9276 -18.9276 -18.8962 -18.8962
     6.6526   6.6526   9.1050   9.1050   9.8406   9.8407  10.9997

          k = 0.0833 0.4330 0.0000 (  2018 PWs)   bands (ev):

   -40.0925 -40.0624 -19.1202 -19.0784 -19.0605 -18.9665 -18.8881 -18.8781
     6.3970   8.2119   8.2693   8.7403  10.0480  10.2887  10.3317

          k = 0.0833 0.4330 0.0784 (  2011 PWs)   bands (ev):

   -40.0913 -40.0635 -19.1393 -19.0786 -19.0429 -18.9639 -18.8895 -18.8773
     6.4495   8.0778   8.3644   8.7917   9.9963  10.2720  10.3754

          k = 0.0833 0.4330 0.1568 (  2019 PWs)   bands (ev):

   -40.0881 -40.0668 -19.1593 -19.1027 -19.0012 -18.9536 -18.8985 -18.8761
     6.6032   7.8229   8.5333   8.9047   9.8925  10.1645  10.5282

          k = 0.0833 0.4330 0.2353 (  2018 PWs)   bands (ev):

   -40.0832 -40.0717 -19.1648 -19.1317 -18.9648 -18.9353 -18.9115 -18.8829
     6.8461   7.4976   8.7564   8.9989   9.8054   9.9782  10.7788

          k = 0.0833 0.4330-0.3137 (  2028 PWs)   bands (ev):

   -40.0774 -40.0774 -19.1547 -19.1547 -18.9400 -18.9400 -18.9009 -18.9009
     7.1558   7.1558   8.9541   8.9541   9.8226   9.8226  11.1039

          k = 0.0833 0.5292 0.0000 (  2016 PWs)   bands (ev):

   -40.0836 -40.0625 -19.1552 -19.0881 -19.0448 -18.9799 -18.9121 -18.8850
     7.1587   7.9581   8.1765   8.5530   9.9817  10.1334  10.5285

          k = 0.0833 0.5292 0.0784 (  2016 PWs)   bands (ev):

   -40.0828 -40.0633 -19.1663 -19.1013 -19.0274 -18.9744 -18.9092 -18.8862
     7.1642   7.9060   8.2780   8.5759   9.9963  10.1403  10.5156

          k = 0.0833 0.5292 0.1568 (  2019 PWs)   bands (ev):

   -40.0805 -40.0656 -19.1835 -19.1304 -18.9965 -18.9563 -18.9121 -18.8856
     7.1974   7.7799   8.4961   8.6821   9.9960  10.0778  10.5882

          k = 0.0833 0.5292 0.2353 (  2021 PWs)   bands (ev):

   -40.0771 -40.0690 -19.1905 -19.1608 -18.9702 -18.9315 -18.9230 -18.8876
     7.2826   7.6037   8.7345   8.8560   9.8911   9.9600  10.8308

          k = 0.0833 0.5292-0.3137 (  2024 PWs)   bands (ev):

   -40.0730 -40.0730 -19.1827 -19.1827 -18.9477 -18.9477 -18.9013 -18.9013
     7.4243   7.4243   8.9020   8.9020   9.8526   9.8526  11.1807

          k = 0.1667 0.2887 0.0000 (  2023 PWs)   bands (ev):

   -40.1076 -40.0648 -19.1286 -19.0298 -19.0221 -18.9308 -18.8758 -18.8572
     5.4176   8.2742   8.5051   9.0116  10.1527  10.1720  10.6091

          k = 0.1667 0.2887 0.0784 (  2021 PWs)   bands (ev):

   -40.1060 -40.0665 -19.1304 -19.0263 -19.0165 -18.9359 -18.8789 -18.8565
     5.4974   8.1181   8.5369   9.0452  10.1217  10.2019  10.5544

          k = 0.1667 0.2887 0.1568 (  2023 PWs)   bands (ev):

   -40.1013 -40.0711 -19.1295 -19.0417 -18.9853 -18.9416 -18.8870 -18.8599
     5.7319   7.6889   8.6799   9.1380   9.9723  10.1926  10.5466

          k = 0.1667 0.2887 0.2353 (  2022 PWs)   bands (ev):

   -40.0944 -40.0780 -19.1184 -19.0681 -18.9509 -18.9385 -18.8964 -18.8732
     6.1054   7.1413   8.9075   9.2354   9.7897   9.9980  10.7202

          k = 0.1667 0.2887-0.3137 (  2004 PWs)   bands (ev):

   -40.0862 -40.0862 -19.0964 -19.0964 -18.9337 -18.9337 -18.8924 -18.8924
     6.5901   6.5901   9.1510   9.1510   9.7977   9.7977  10.9434

          k = 0.1667 0.3849 0.0000 (  2021 PWs)   bands (ev):

   -40.0947 -40.0625 -19.0863 -19.0856 -19.0566 -18.9633 -18.8984 -18.8828
     6.2303   8.3555   8.4313   8.7113   9.9597  10.2387  10.3677

          k = 0.1667 0.3849 0.0784 (  2022 PWs)   bands (ev):

   -40.0935 -40.0638 -19.1160 -19.0766 -19.0327 -18.9680 -18.9026 -18.8771
     6.2937   8.2356   8.4912   8.7565   9.9234  10.2627  10.3173

          k = 0.1667 0.3849 0.1568 (  2026 PWs)   bands (ev):

   -40.0900 -40.0673 -19.1365 -19.0906 -18.9943 -18.9689 -18.9111 -18.8714
     6.4793   7.9457   8.6360   8.8654   9.8275  10.0843  10.4429

          k = 0.1667 0.3849 0.2353 (  2020 PWs)   bands (ev):

   -40.0848 -40.0725 -19.1421 -19.1130 -18.9735 -18.9547 -18.9130 -18.8763
     6.7722   7.5571   8.8378   8.9909   9.6992   9.8415  10.6758

          k = 0.1667 0.3849-0.3137 (  2018 PWs)   bands (ev):

   -40.0786 -40.0786 -19.1329 -19.1329 -18.9596 -18.9596 -18.8937 -18.8937
     7.1455   7.1455   9.0061   9.0061   9.6684   9.6684  10.9842

          k = 0.1667 0.4811 0.0000 (  2023 PWs)   bands (ev):

   -40.0836 -40.0624 -19.1287 -19.0729 -19.0454 -18.9947 -18.9135 -18.9115
     7.0588   8.2578   8.2693   8.5427   9.8761  10.1175  10.4962

          k = 0.1667 0.4811 0.0784 (  2025 PWs)   bands (ev):

   -40.0828 -40.0632 -19.1392 -19.0895 -19.0276 -18.9893 -18.9225 -18.8984
     7.0945   8.1567   8.3603   8.6143   9.8478  10.0545  10.5146

          k = 0.1667 0.4811 0.1568 (  2021 PWs)   bands (ev):

   -40.0805 -40.0655 -19.1569 -19.1151 -19.0135 -18.9645 -18.9311 -18.8847
     7.1990   7.9987   8.5219   8.7746   9.7580   9.8803  10.6026

          k = 0.1667 0.4811 0.2353 (  2018 PWs)   bands (ev):

   -40.0771 -40.0690 -19.1657 -19.1414 -18.9987 -18.9622 -18.9159 -18.8811
     7.3642   7.7954   8.7499   8.9428   9.6285   9.6489  10.7898

          k = 0.1667 0.4811-0.3137 (  2016 PWs)   bands (ev):

   -40.0730 -40.0730 -19.1601 -19.1601 -18.9801 -18.9801 -18.8921 -18.8921
     7.5724   7.5724   8.9573   8.9573   9.5344   9.5344  11.0739

          k = 0.1667 0.5774 0.0000 (  2007 PWs)   bands (ev):

   -40.0787 -40.0633 -19.1442 -19.0771 -19.0246 -19.0080 -18.9277 -18.9188
     7.5647   8.0383   8.2421   8.4477   9.9189   9.9523  10.6245

          k = 0.1667 0.5774 0.0784 (  2023 PWs)   bands (ev):

   -40.0781 -40.0639 -19.1526 -19.0910 -19.0300 -18.9846 -18.9344 -18.9078
     7.5575   8.0250   8.3327   8.4807   9.8819   9.9167  10.6376

          k = 0.1667 0.5774 0.1568 (  2025 PWs)   bands (ev):

   -40.0764 -40.0655 -19.1677 -19.1209 -19.0242 -18.9477 -18.9475 -18.8916
     7.5654   7.9632   8.5617   8.6022   9.7742   9.7843  10.7153

          k = 0.1667 0.5774 0.2353 (  2023 PWs)   bands (ev):

   -40.0739 -40.0680 -19.1759 -19.1506 -19.0084 -18.9663 -18.9137 -18.8841
     7.6206   7.8504   8.8093   8.8433   9.5655   9.6014  10.8934

          k = 0.1667 0.5774-0.3137 (  2030 PWs)   bands (ev):

   -40.0710 -40.0710 -19.1703 -19.1703 -18.9878 -18.9878 -18.8913 -18.8913
     7.7234   7.7234   8.9871   8.9871   9.4413   9.4414  11.1626

          k = 0.2500 0.4330 0.0000 (  2027 PWs)   bands (ev):

   -40.0837 -40.0624 -19.1059 -19.0761 -19.0457 -18.9941 -18.9344 -18.9112
     7.0224   8.3221   8.4524   8.4933   9.8005  10.1273  10.4630

          k = 0.2500 0.4330 0.0784 (  2029 PWs)   bands (ev):

   -40.0829 -40.0632 -19.1079 -19.1042 -19.0135 -19.0043 -18.9368 -18.9005
     7.0694   8.2598   8.4896   8.5690   9.7842  10.0230  10.4734

          k = 0.2500 0.4330 0.1568 (  2026 PWs)   bands (ev):

   -40.0806 -40.0655 -19.1326 -19.1172 -19.0153 -18.9804 -18.9362 -18.8847
     7.2053   8.1210   8.5992   8.7269   9.7171   9.7799  10.5305

          k = 0.2500 0.4330 0.2353 (  2014 PWs)   bands (ev):

   -40.0771 -40.0690 -19.1470 -19.1333 -19.0115 -18.9814 -18.9130 -18.8794
     7.4134   7.9152   8.7690   8.9030   9.5227   9.5808  10.6898

          k = 0.2500 0.4330-0.3137 (  2008 PWs)   bands (ev):

   -40.0730 -40.0730 -19.1462 -19.1462 -18.9971 -18.9971 -18.8893 -18.8893
     7.6642   7.6642   8.9366   8.9366   9.4409   9.4409  10.9747

          k = 0.2500 0.5292 0.0000 (  2027 PWs)   bands (ev):

   -40.0753 -40.0643 -19.1211 -19.0649 -19.0288 -19.0095 -18.9572 -18.9404
     7.7166   8.2683   8.3246   8.3872   9.7744   9.9018  10.6869

          k = 0.2500 0.5292 0.0784 (  2028 PWs)   bands (ev):

   -40.0749 -40.0648 -19.1241 -19.0838 -19.0442 -18.9842 -18.9615 -18.9237
     7.7452   8.2422   8.3558   8.4760   9.7337   9.8068  10.6912

          k = 0.2500 0.5292 0.1568 (  2022 PWs)   bands (ev):

   -40.0737 -40.0659 -19.1365 -19.1109 -19.0538 -18.9833 -18.9365 -18.8994
     7.8243   8.1989   8.4789   8.6589   9.5566   9.6197  10.7266

          k = 0.2500 0.5292 0.2353 (  2019 PWs)   bands (ev):

   -40.0719 -40.0677 -19.1488 -19.1350 -19.0439 -19.0021 -18.9048 -18.8850
     7.9344   8.1391   8.6825   8.8960   9.2566   9.4162  10.8407

          k = 0.2500 0.5292-0.3137 (  2020 PWs)   bands (ev):

   -40.0698 -40.0698 -19.1491 -19.1491 -19.0240 -19.0240 -18.8865 -18.8865
     8.0481   8.0481   8.9470   8.9470   9.1658   9.1658  11.0701

          k = 0.3333 0.5774 0.0000 (  2037 PWs)   bands (ev):

   -40.0686 -40.0686 -19.1117 -19.0501 -19.0501 -18.9829 -18.9737 -18.9737
     8.1675   8.1675   8.2702   8.3614   9.7707   9.7707  10.7817

          k = 0.3333 0.5774 0.0784 (  2013 PWs)   bands (ev):

   -40.0686 -40.0686 -19.1067 -19.0716 -19.0716 -18.9878 -18.9519 -18.9519
     8.2135   8.2135   8.2894   8.3797   9.6931   9.6931  10.7804

          k = 0.3333 0.5774 0.1568 (  2016 PWs)   bands (ev):

   -40.0686 -40.0686 -19.1048 -19.1048 -19.0929 -19.0019 -18.9180 -18.9180
     8.3397   8.3442   8.3442   8.4216   9.4922   9.4922  10.7975

          k = 0.3333 0.5774 0.2353 (  2019 PWs)   bands (ev):

   -40.0686 -40.0686 -19.1288 -19.1288 -19.0722 -19.0230 -18.8934 -18.8934
     8.4024   8.4546   8.5328   8.5328   9.2414   9.2414  10.8840

          k = 0.3333 0.5774-0.3137 (  2034 PWs)   bands (ev):

   -40.0686 -40.0686 -19.1374 -19.1374 -19.0477 -19.0477 -18.8847 -18.8847
     8.4488   8.4488   8.6645   8.6645   9.0858   9.0858  11.0881

     the Fermi energy is     8.8250 ev

!    total energy              =    -306.86529642 Ry
     total all-electron energy =     -3050.006067 Ry
     estimated scf accuracy    <          2.8E-09 Ry
     smearing contrib. (-TS)   =      -0.00103887 Ry
     internal energy E=F+TS    =    -306.86425754 Ry

     The total energy is F=E-TS. E is the sum of the following terms:
     one-electron contribution =     -74.38444656 Ry
     hartree contribution      =      42.27656091 Ry
     xc contribution           =     -34.52932129 Ry
     ewald contribution        =    -126.46581266 Ry
     one-center paw contrib.   =    -113.76123795 Ry

     convergence has been achieved in   7 iterations

     Writing all to output data dir sc_rhocut.out/scandium.save/

     init_run     :      0.53s CPU      0.59s WALL (       1 calls)
     electrons    :     13.74s CPU     14.60s WALL (       1 calls)

     Called by init_run:
     wfcinit      :      0.41s CPU      0.46s WALL (       1 calls)
     potinit      :      0.04s CPU      0.05s WALL (       1 calls)
     hinit0       :      0.07s CPU      0.07s WALL (       1 calls)

     Called by electrons:
     c_bands      :     12.44s CPU     13.25s WALL (       8 calls)
     sum_band     :      1.01s CPU      1.05s WALL (       8 calls)
     v_of_rho     :      0.00s CPU      0.00s WALL (       8 calls)
     newd         :      0.03s CPU      0.04s WALL (       8 calls)
     PAW_pot      :      0.26s CPU      0.27s WALL (       8 calls)
     mix_rho      :      0.01s CPU      0.01s WALL (       8 calls)

     Called by c_bands:
     init_us_2    :      0.10s CPU      0.10s WALL (    1615 calls)
     init_us_2:cp :      0.09s CPU      0.10s WALL (    1615 calls)
     cegterg      :     12.19s CPU     12.65s WALL (     760 calls)

     Called by *egterg:
     cdiaghg      :      1.98s CPU      2.07s WALL (    6745 calls)
     h_psi        :      8.18s CPU      8.53s WALL (    6935 calls)
     s_psi        :      0.43s CPU      0.44s WALL (    6935 calls)
     g_psi        :      0.04s CPU      0.04s WALL (    6080 calls)

     Called by h_psi:
     h_psi:calbec :      0.60s CPU      0.62s WALL (    6935 calls)
     vloc_psi     :      7.10s CPU      7.41s WALL (    6935 calls)
     add_vuspsi   :      0.43s CPU      0.44s WALL (    6935 calls)

     General routines
     calbec       :      0.69s CPU      0.73s WALL (    7695 calls)
     fft          :      0.01s CPU      0.01s WALL (      33 calls)
     ffts         :      0.00s CPU      0.00s WALL (       8 calls)
     fftw         :      7.29s CPU      7.61s WALL (  116724 calls)

     Parallel routines

     PWSCF        :     14.67s CPU     16.51s WALL


   This run was terminated on:  12:12:39  26Jul2023            

=------------------------------------------------------------------------------=
   JOB DONE.
=------------------------------------------------------------------------------=
