
     Program PWSCF v.7.2 starts on 16Jun2023 at 14:52: 8 

     This program is part of the open-source Quantum ESPRESSO suite
     for quantum simulation of materials; please cite
         "P. Giannozzi et al., J. Phys.:Condens. Matter 21 395502 (2009);
         "P. Giannozzi et al., J. Phys.:Condens. Matter 29 465901 (2017);
         "P. Giannozzi et al., J. Chem. Phys. 152 154105 (2020);
          URL http://www.quantum-espresso.org", 
     in publications or presentations arising from this work. More details at
     http://www.quantum-espresso.org/quote

     Parallel version (MPI), running on     1 processors

     MPI processes distributed on     1 nodes
     317439 MiB available memory on the printing compute node when the environment starts

     Waiting for input...
     Reading input from standard input

     Current dimensions of program PWSCF are:
     Max number of different atomic species (ntypx) = 10
     Max number of k-points (npk) = 120000
     Max angular momentum in pseudopotentials (lmaxx) =  4
     file Sc.pz-spn-kjpaw_psl.1.0.0.UPF: wavefunction(s)  3S 3P 3D renormalized

     Subspace diagonalization in iterative solution of the eigenvalue problem:
     a serial algorithm will be used


     G-vector sticks info
     --------------------
     sticks:   dense  smooth     PW     G-vecs:    dense   smooth      PW
     Sum         547     547    163                16131    16131    2707

     Using Slab Decomposition



     bravais-lattice index     =            4
     lattice parameter (alat)  =       6.2531  a.u.
     unit-cell volume          =     337.5249 (a.u.)^3
     number of atoms/cell      =            2
     number of atomic types    =            1
     number of electrons       =        22.00
     number of Kohn-Sham states=           15
     kinetic-energy cutoff     =      50.0000  Ry
     charge density cutoff     =     200.0000  Ry
     scf convergence threshold =      1.0E-08
     mixing beta               =       0.7000
     number of iterations used =            8  plain     mixing
     energy convergence thresh.=      1.0E-04
     force convergence thresh. =      1.0E-03
     press convergence thresh. =      5.0E-01
     Exchange-correlation= SLA  PZ   NOGX NOGC
                           (   1   1   0   0   0   0   0)
     nstep                     =           50


     celldm(1)=   6.253104  celldm(2)=   0.000000  celldm(3)=   1.594000
     celldm(4)=   0.000000  celldm(5)=   0.000000  celldm(6)=   0.000000

     crystal axes: (cart. coord. in units of alat)
               a(1) = (   1.000000   0.000000   0.000000 )  
               a(2) = (  -0.500000   0.866025   0.000000 )  
               a(3) = (   0.000000   0.000000   1.594000 )  

     reciprocal axes: (cart. coord. in units 2 pi/alat)
               b(1) = (  1.000000  0.577350 -0.000000 )  
               b(2) = (  0.000000  1.154701  0.000000 )  
               b(3) = (  0.000000 -0.000000  0.627353 )  


     PseudoPot. # 1 for Sc read from file:
     ../../../Sc.pz-spn-kjpaw_psl.1.0.0.UPF
     MD5 check sum: 1f9095df0bb42a6568b4e9f256ff075f
     Pseudo is Projector augmented-wave + core cor, Zval = 11.0
     Generated using 'atomic' code by A. Dal Corso  v.7.1
     Shape of augmentation charge: PSQ
     Using radial grid of 1173 points,  6 beta functions with: 
                l(1) =   0
                l(2) =   0
                l(3) =   1
                l(4) =   1
                l(5) =   2
                l(6) =   2
     Q(r) pseudized with 0 coefficients 


     atomic species   valence    mass     pseudopotential
        Sc            11.00    44.59600     Sc( 1.00)

     24 Sym. Ops., with inversion, found (12 have fractional translation)



   Cartesian axes

     site n.     atom                  positions (alat units)
         1           Sc  tau(   1) = (   0.0000000   0.0000000   0.0000000  )
         2           Sc  tau(   2) = (   0.5000000   0.2886751   0.7970000  )

     number of k points=    95  Marzari-Vanderbilt smearing, width (Ry)=  0.0200
                       cart. coord. in units 2pi/alat
        k(    1) = (   0.0000000   0.0000000   0.0000000), wk =   0.0017361
        k(    2) = (   0.0000000   0.0000000   0.0784191), wk =   0.0034722
        k(    3) = (   0.0000000   0.0000000   0.1568381), wk =   0.0034722
        k(    4) = (   0.0000000   0.0000000   0.2352572), wk =   0.0034722
        k(    5) = (   0.0000000   0.0000000  -0.3136763), wk =   0.0017361
        k(    6) = (   0.0000000   0.0962250   0.0000000), wk =   0.0104167
        k(    7) = (   0.0000000   0.0962250   0.0784191), wk =   0.0208333
        k(    8) = (   0.0000000   0.0962250   0.1568381), wk =   0.0208333
        k(    9) = (   0.0000000   0.0962250   0.2352572), wk =   0.0208333
        k(   10) = (   0.0000000   0.0962250  -0.3136763), wk =   0.0104167
        k(   11) = (   0.0000000   0.1924501   0.0000000), wk =   0.0104167
        k(   12) = (   0.0000000   0.1924501   0.0784191), wk =   0.0208333
        k(   13) = (   0.0000000   0.1924501   0.1568381), wk =   0.0208333
        k(   14) = (   0.0000000   0.1924501   0.2352572), wk =   0.0208333
        k(   15) = (   0.0000000   0.1924501  -0.3136763), wk =   0.0104167
        k(   16) = (   0.0000000   0.2886751   0.0000000), wk =   0.0104167
        k(   17) = (   0.0000000   0.2886751   0.0784191), wk =   0.0208333
        k(   18) = (   0.0000000   0.2886751   0.1568381), wk =   0.0208333
        k(   19) = (   0.0000000   0.2886751   0.2352572), wk =   0.0208333
        k(   20) = (   0.0000000   0.2886751  -0.3136763), wk =   0.0104167
        k(   21) = (   0.0000000   0.3849002   0.0000000), wk =   0.0104167
        k(   22) = (   0.0000000   0.3849002   0.0784191), wk =   0.0208333
        k(   23) = (   0.0000000   0.3849002   0.1568381), wk =   0.0208333
        k(   24) = (   0.0000000   0.3849002   0.2352572), wk =   0.0208333
        k(   25) = (   0.0000000   0.3849002  -0.3136763), wk =   0.0104167
        k(   26) = (   0.0000000   0.4811252   0.0000000), wk =   0.0104167
        k(   27) = (   0.0000000   0.4811252   0.0784191), wk =   0.0208333
        k(   28) = (   0.0000000   0.4811252   0.1568381), wk =   0.0208333
        k(   29) = (   0.0000000   0.4811252   0.2352572), wk =   0.0208333
        k(   30) = (   0.0000000   0.4811252  -0.3136763), wk =   0.0104167
        k(   31) = (   0.0000000  -0.5773503   0.0000000), wk =   0.0052083
        k(   32) = (   0.0000000  -0.5773503   0.0784191), wk =   0.0104167
        k(   33) = (   0.0000000  -0.5773503   0.1568381), wk =   0.0104167
        k(   34) = (   0.0000000  -0.5773503   0.2352572), wk =   0.0104167
        k(   35) = (   0.0000000  -0.5773503  -0.3136763), wk =   0.0052083
        k(   36) = (   0.0833333   0.1443376   0.0000000), wk =   0.0104167
        k(   37) = (   0.0833333   0.1443376   0.0784191), wk =   0.0208333
        k(   38) = (   0.0833333   0.1443376   0.1568381), wk =   0.0208333
        k(   39) = (   0.0833333   0.1443376   0.2352572), wk =   0.0208333
        k(   40) = (   0.0833333   0.1443376  -0.3136763), wk =   0.0104167
        k(   41) = (   0.0833333   0.2405626   0.0000000), wk =   0.0208333
        k(   42) = (   0.0833333   0.2405626   0.0784191), wk =   0.0416667
        k(   43) = (   0.0833333   0.2405626   0.1568381), wk =   0.0416667
        k(   44) = (   0.0833333   0.2405626   0.2352572), wk =   0.0416667
        k(   45) = (   0.0833333   0.2405626  -0.3136763), wk =   0.0208333
        k(   46) = (   0.0833333   0.3367877   0.0000000), wk =   0.0208333
        k(   47) = (   0.0833333   0.3367877   0.0784191), wk =   0.0416667
        k(   48) = (   0.0833333   0.3367877   0.1568381), wk =   0.0416667
        k(   49) = (   0.0833333   0.3367877   0.2352572), wk =   0.0416667
        k(   50) = (   0.0833333   0.3367877  -0.3136763), wk =   0.0208333
        k(   51) = (   0.0833333   0.4330127   0.0000000), wk =   0.0208333
        k(   52) = (   0.0833333   0.4330127   0.0784191), wk =   0.0416667
        k(   53) = (   0.0833333   0.4330127   0.1568381), wk =   0.0416667
        k(   54) = (   0.0833333   0.4330127   0.2352572), wk =   0.0416667
        k(   55) = (   0.0833333   0.4330127  -0.3136763), wk =   0.0208333
        k(   56) = (   0.0833333   0.5292377   0.0000000), wk =   0.0208333
        k(   57) = (   0.0833333   0.5292377   0.0784191), wk =   0.0416667
        k(   58) = (   0.0833333   0.5292377   0.1568381), wk =   0.0416667
        k(   59) = (   0.0833333   0.5292377   0.2352572), wk =   0.0416667
        k(   60) = (   0.0833333   0.5292377  -0.3136763), wk =   0.0208333
        k(   61) = (   0.1666667   0.2886751   0.0000000), wk =   0.0104167
        k(   62) = (   0.1666667   0.2886751   0.0784191), wk =   0.0208333
        k(   63) = (   0.1666667   0.2886751   0.1568381), wk =   0.0208333
        k(   64) = (   0.1666667   0.2886751   0.2352572), wk =   0.0208333
        k(   65) = (   0.1666667   0.2886751  -0.3136763), wk =   0.0104167
        k(   66) = (   0.1666667   0.3849002   0.0000000), wk =   0.0208333
        k(   67) = (   0.1666667   0.3849002   0.0784191), wk =   0.0416667
        k(   68) = (   0.1666667   0.3849002   0.1568381), wk =   0.0416667
        k(   69) = (   0.1666667   0.3849002   0.2352572), wk =   0.0416667
        k(   70) = (   0.1666667   0.3849002  -0.3136763), wk =   0.0208333
        k(   71) = (   0.1666667   0.4811252   0.0000000), wk =   0.0208333
        k(   72) = (   0.1666667   0.4811252   0.0784191), wk =   0.0416667
        k(   73) = (   0.1666667   0.4811252   0.1568381), wk =   0.0416667
        k(   74) = (   0.1666667   0.4811252   0.2352572), wk =   0.0416667
        k(   75) = (   0.1666667   0.4811252  -0.3136763), wk =   0.0208333
        k(   76) = (   0.1666667   0.5773503   0.0000000), wk =   0.0104167
        k(   77) = (   0.1666667   0.5773503   0.0784191), wk =   0.0208333
        k(   78) = (   0.1666667   0.5773503   0.1568381), wk =   0.0208333
        k(   79) = (   0.1666667   0.5773503   0.2352572), wk =   0.0208333
        k(   80) = (   0.1666667   0.5773503  -0.3136763), wk =   0.0104167
        k(   81) = (   0.2500000   0.4330127   0.0000000), wk =   0.0104167
        k(   82) = (   0.2500000   0.4330127   0.0784191), wk =   0.0208333
        k(   83) = (   0.2500000   0.4330127   0.1568381), wk =   0.0208333
        k(   84) = (   0.2500000   0.4330127   0.2352572), wk =   0.0208333
        k(   85) = (   0.2500000   0.4330127  -0.3136763), wk =   0.0104167
        k(   86) = (   0.2500000   0.5292377   0.0000000), wk =   0.0208333
        k(   87) = (   0.2500000   0.5292377   0.0784191), wk =   0.0416667
        k(   88) = (   0.2500000   0.5292377   0.1568381), wk =   0.0416667
        k(   89) = (   0.2500000   0.5292377   0.2352572), wk =   0.0416667
        k(   90) = (   0.2500000   0.5292377  -0.3136763), wk =   0.0208333
        k(   91) = (   0.3333333   0.5773503   0.0000000), wk =   0.0034722
        k(   92) = (   0.3333333   0.5773503   0.0784191), wk =   0.0069444
        k(   93) = (   0.3333333   0.5773503   0.1568381), wk =   0.0069444
        k(   94) = (   0.3333333   0.5773503   0.2352572), wk =   0.0069444
        k(   95) = (   0.3333333   0.5773503  -0.3136763), wk =   0.0034722

     Dense  grid:    16131 G-vectors     FFT dimensions: (  30,  30,  48)

     Estimated max dynamical RAM per process >     106.80 MB

     Check: negative core charge=   -0.000057

     Initial potential from superposition of free atoms

     starting charge      21.9956, renormalised to      22.0000
     Starting wfcs are   20 randomized atomic wfcs
     Checking if some PAW data can be deallocated... 

     total cpu time spent up to now is        5.7 secs

     Self-consistent Calculation

     iteration #  1     ecut=    50.00 Ry     beta= 0.70
     Davidson diagonalization with overlap
     ethr =  1.00E-02,  avg # of iterations =  3.1

     Threshold (ethr) on eigenvalues was too large:
     Diagonalizing with lowered threshold

     Davidson diagonalization with overlap
     c_bands:  2 eigenvalues not converged
     c_bands:  1 eigenvalues not converged
     c_bands:  1 eigenvalues not converged
     c_bands:  3 eigenvalues not converged
     c_bands:  2 eigenvalues not converged
     c_bands:  1 eigenvalues not converged
     c_bands:  3 eigenvalues not converged
     c_bands:  2 eigenvalues not converged
     c_bands:  1 eigenvalues not converged
     c_bands:  3 eigenvalues not converged
     c_bands:  1 eigenvalues not converged
     c_bands:  2 eigenvalues not converged
     c_bands:  5 eigenvalues not converged
     c_bands:  2 eigenvalues not converged
     c_bands:  1 eigenvalues not converged
     ethr =  9.84E-06,  avg # of iterations = 15.9

     total cpu time spent up to now is       39.3 secs

     total energy              =    -306.85884752 Ry
     estimated scf accuracy    <       0.02114548 Ry

     iteration #  2     ecut=    50.00 Ry     beta= 0.70
     Davidson diagonalization with overlap
     ethr =  9.61E-05,  avg # of iterations =  4.2

     total cpu time spent up to now is       48.6 secs

     total energy              =    -306.86414189 Ry
     estimated scf accuracy    <       0.00302554 Ry

     iteration #  3     ecut=    50.00 Ry     beta= 0.70
     Davidson diagonalization with overlap
     ethr =  1.38E-05,  avg # of iterations =  5.1

     total cpu time spent up to now is       58.9 secs

     total energy              =    -306.86508467 Ry
     estimated scf accuracy    <       0.00009970 Ry

     iteration #  4     ecut=    50.00 Ry     beta= 0.70
     Davidson diagonalization with overlap
     c_bands:  1 eigenvalues not converged
     c_bands:  2 eigenvalues not converged
     ethr =  4.53E-07,  avg # of iterations =  9.8

     total cpu time spent up to now is       74.1 secs

     total energy              =    -306.86526645 Ry
     estimated scf accuracy    <       0.00006381 Ry

     iteration #  5     ecut=    50.00 Ry     beta= 0.70
     Davidson diagonalization with overlap
     c_bands:  1 eigenvalues not converged
     c_bands:  1 eigenvalues not converged
     ethr =  2.90E-07,  avg # of iterations =  6.0

     total cpu time spent up to now is       84.5 secs

     total energy              =    -306.86528940 Ry
     estimated scf accuracy    <       0.00001395 Ry

     iteration #  6     ecut=    50.00 Ry     beta= 0.70
     Davidson diagonalization with overlap
     ethr =  6.34E-08,  avg # of iterations =  5.2

     total cpu time spent up to now is       94.3 secs

     total energy              =    -306.86529531 Ry
     estimated scf accuracy    <       0.00000078 Ry

     iteration #  7     ecut=    50.00 Ry     beta= 0.70
     Davidson diagonalization with overlap
     ethr =  3.53E-09,  avg # of iterations =  9.9

     total cpu time spent up to now is      107.1 secs

     total energy              =    -306.86529637 Ry
     estimated scf accuracy    <       0.00000002 Ry

     iteration #  8     ecut=    50.00 Ry     beta= 0.70
     Davidson diagonalization with overlap
     c_bands:  1 eigenvalues not converged
     ethr =  7.29E-11,  avg # of iterations = 13.3

     total cpu time spent up to now is      124.5 secs

     End of self-consistent calculation

          k = 0.0000 0.0000 0.0000 (  1997 PWs)   bands (ev):

   -40.1408 -40.0765 -19.2221 -18.8882 -18.8882 -18.8295 -18.8295 -18.8127
     3.7531   7.1493   9.3029  10.3612  10.3613  10.4714  10.7642

          k = 0.0000 0.0000 0.0784 (  1973 PWs)   bands (ev):

   -40.1384 -40.0789 -19.2068 -18.8860 -18.8860 -18.8317 -18.8317 -18.8285
     3.8544   6.9948   9.2739  10.3187  10.3187  10.4064  10.7087

          k = 0.0000 0.0000 0.1568 (  1996 PWs)   bands (ev):

   -40.1314 -40.0859 -19.1637 -18.8797 -18.8797 -18.8742 -18.8382 -18.8382
     4.1515   6.5466   9.2845  10.2240  10.2564  10.2565  10.5741

          k = 0.0000 0.0000 0.2353 (  2008 PWs)   bands (ev):

   -40.1210 -40.0964 -19.0986 -18.9418 -18.8703 -18.8703 -18.8478 -18.8478
     4.6235   5.9090   9.4273   9.9615  10.2444  10.2447  10.4219

          k = 0.0000 0.0000-0.3137 (  2014 PWs)   bands (ev):

   -40.1087 -40.1087 -19.0207 -19.0207 -18.8591 -18.8591 -18.8591 -18.8591
     5.2314   5.2314   9.6743   9.6743  10.3023  10.3023  10.3023

          k = 0.0000 0.0962 0.0000 (  2001 PWs)   bands (ev):

   -40.1375 -40.0751 -19.2133 -18.9064 -18.8942 -18.8487 -18.8322 -18.8163
     3.9045   7.2794   9.1791  10.0925  10.4704  10.6381  10.6996

          k = 0.0000 0.0962 0.0784 (  1991 PWs)   bands (ev):

   -40.1351 -40.0775 -19.1990 -18.9038 -18.8919 -18.8568 -18.8345 -18.8259
     4.0043   7.1242   9.1530  10.0886  10.4161  10.5136  10.6387

          k = 0.0000 0.0962 0.1568 (  1998 PWs)   bands (ev):

   -40.1284 -40.0843 -19.1584 -18.8968 -18.8901 -18.8853 -18.8423 -18.8414
     4.2972   6.6738   9.1782  10.0945  10.2431  10.3430  10.6581

          k = 0.0000 0.0962 0.2353 (  1998 PWs)   bands (ev):

   -40.1183 -40.0944 -19.0973 -18.9515 -18.8846 -18.8752 -18.8566 -18.8514
     4.7631   6.0368   9.3411   9.9284  10.1411  10.3280  10.3863

          k = 0.0000 0.0962-0.3137 (  2006 PWs)   bands (ev):

   -40.1064 -40.1064 -19.0246 -19.0246 -18.8709 -18.8709 -18.8633 -18.8633
     5.3641   5.3641   9.6106   9.6106  10.2414  10.2414  10.3861

          k = 0.0000 0.1925 0.0000 (  2004 PWs)   bands (ev):

   -40.1282 -40.0716 -19.1880 -18.9566 -18.9103 -18.9000 -18.8397 -18.8275
     4.3439   7.6280   8.8954   9.6818  10.4151  10.7885  10.8209

          k = 0.0000 0.1925 0.0784 (  1996 PWs)   bands (ev):

   -40.1261 -40.0737 -19.1769 -18.9525 -18.9095 -18.9076 -18.8424 -18.8338
     4.4389   7.4727   8.8809   9.7012  10.4062  10.5501  10.6384

          k = 0.0000 0.1925 0.1568 (  1994 PWs)   bands (ev):

   -40.1200 -40.0799 -19.1452 -18.9459 -18.9327 -18.9000 -18.8503 -18.8502
     4.7180   7.0190   8.9446   9.7578  10.1818  10.4146  10.5475

          k = 0.0000 0.1925 0.2353 (  1998 PWs)   bands (ev):

   -40.1108 -40.0891 -19.0978 -18.9864 -18.9191 -18.8886 -18.8724 -18.8616
     5.1627   6.3904   9.1473   9.7463   9.9653  10.2668  10.5413

          k = 0.0000 0.1925-0.3137 (  2010 PWs)   bands (ev):

   -40.1000 -40.1000 -19.0418 -19.0418 -18.8965 -18.8965 -18.8752 -18.8752
     5.7392   5.7392   9.4438   9.4438  10.0863  10.0864  10.6122

          k = 0.0000 0.2887 0.0000 (  2010 PWs)   bands (ev):

   -40.1151 -40.0672 -19.1501 -19.0259 -18.9679 -18.9315 -18.8507 -18.8463
     5.0260   8.0359   8.5901   9.2572  10.1955  10.4758  10.5768

          k = 0.0000 0.2887 0.0784 (  2016 PWs)   bands (ev):

   -40.1133 -40.0691 -19.1467 -19.0172 -18.9770 -18.9285 -18.8539 -18.8496
     5.1113   7.8852   8.6029   9.2879  10.1684  10.4159  10.5898

          k = 0.0000 0.2887 0.1568 (  2005 PWs)   bands (ev):

   -40.1081 -40.0743 -19.1348 -19.0130 -18.9820 -18.9197 -18.8627 -18.8612
     5.3621   7.4488   8.7219   9.3644  10.0231  10.3051  10.6392

          k = 0.0000 0.2887 0.2353 (  2014 PWs)   bands (ev):

   -40.1004 -40.0820 -19.1129 -19.0454 -18.9504 -18.9067 -18.8832 -18.8758
     5.7616   6.8693   8.9490   9.4020   9.8644  10.1357  10.7396

          k = 0.0000 0.2887-0.3137 (  2006 PWs)   bands (ev):

   -40.0912 -40.0912 -19.0816 -19.0816 -18.9144 -18.9144 -18.8913 -18.8913
     6.2803   6.2803   9.2210   9.2210   9.9390   9.9390  10.8921

          k = 0.0000 0.3849 0.0000 (  2002 PWs)   bands (ev):

   -40.1009 -40.0639 -19.1055 -19.0957 -19.0336 -18.9520 -18.8715 -18.8622
     5.8666   8.1972   8.3431   8.9208  10.2207  10.2287  10.3649

          k = 0.0000 0.3849 0.0784 (  2016 PWs)   bands (ev):

   -40.0995 -40.0653 -19.1321 -19.0648 -19.0380 -18.9487 -18.8715 -18.8657
     5.9338   8.0532   8.4137   8.9625  10.0763  10.3070  10.4142

          k = 0.0000 0.3849 0.1568 (  2015 PWs)   bands (ev):

   -40.0955 -40.0693 -19.1488 -19.0775 -19.0043 -18.9390 -18.8758 -18.8755
     6.1306   7.7184   8.5752   9.0507   9.9309  10.2565  10.5590

          k = 0.0000 0.3849 0.2353 (  2016 PWs)   bands (ev):

   -40.0895 -40.0753 -19.1492 -19.1079 -18.9585 -18.9245 -18.8907 -18.8902
     6.4423   7.2878   8.7975   9.1049   9.8436  10.0876  10.7885

          k = 0.0000 0.3849-0.3137 (  2020 PWs)   bands (ev):

   -40.0824 -40.0824 -19.1343 -19.1343 -18.9189 -18.9189 -18.9074 -18.9074
     6.8419   6.8419   9.0127   9.0127   9.9047   9.9047  11.0827

          k = 0.0000 0.4811 0.0000 (  2016 PWs)   bands (ev):

   -40.0891 -40.0629 -19.1471 -19.0806 -19.0643 -18.9667 -18.8987 -18.8710
     6.7203   8.0316   8.1875   8.6692  10.0579  10.2239  10.4339

          k = 0.0000 0.4811 0.0784 (  2018 PWs)   bands (ev):

   -40.0881 -40.0639 -19.1612 -19.0945 -19.0395 -18.9631 -18.8953 -18.8747
     6.7525   7.9345   8.2866   8.7004  10.0624  10.2858  10.3875

          k = 0.0000 0.4811 0.1568 (  2013 PWs)   bands (ev):

   -40.0852 -40.0667 -19.1799 -19.1229 -18.9954 -18.9528 -18.8916 -18.8851
     6.8503   7.7377   8.4797   8.7982  10.0485  10.2644  10.4680

          k = 0.0000 0.4811 0.2353 (  2026 PWs)   bands (ev):

   -40.0810 -40.0709 -19.1862 -19.1537 -18.9519 -18.9374 -18.9008 -18.8975
     7.0135   7.4884   8.7101   8.9088   9.9916  10.1131  10.7605

          k = 0.0000 0.4811-0.3137 (  2012 PWs)   bands (ev):

   -40.0760 -40.0760 -19.1767 -19.1767 -18.9191 -18.9191 -18.9177 -18.9177
     7.2340   7.2340   8.8923   8.8923   9.9946   9.9948  11.1438

          k = 0.0000-0.5774 0.0000 (  2008 PWs)   bands (ev):

   -40.0841 -40.0631 -19.1660 -19.0975 -19.0449 -18.9720 -18.9129 -18.8742
     7.2375   7.7936   8.1349   8.5537   9.9971  10.1747  10.5329

          k = 0.0000-0.5774 0.0784 (  2016 PWs)   bands (ev):

   -40.0833 -40.0639 -19.1771 -19.1102 -19.0260 -18.9683 -18.9077 -18.8780
     7.2181   7.7701   8.2447   8.5524  10.0509  10.2400  10.4619

          k = 0.0000-0.5774 0.1568 (  2010 PWs)   bands (ev):

   -40.0810 -40.0662 -19.1942 -19.1394 -18.9867 -18.9578 -18.8999 -18.8886
     7.2047   7.6768   8.5059   8.6057  10.1445  10.2823  10.4326

          k = 0.0000-0.5774 0.2353 (  2030 PWs)   bands (ev):

   -40.0776 -40.0696 -19.2011 -19.1703 -18.9470 -18.9421 -18.9047 -18.9011
     7.2489   7.5205   8.7442   8.7736  10.0987  10.1507  10.7429

          k = 0.0000-0.5774-0.3137 (  2032 PWs)   bands (ev):

   -40.0736 -40.0736 -19.1928 -19.1928 -18.9234 -18.9234 -18.9168 -18.9168
     7.3613   7.3613   8.8607   8.8607  10.0672  10.0673  11.1522

          k = 0.0833 0.1443 0.0000 (  1999 PWs)   bands (ev):

   -40.1312 -40.0727 -19.1962 -18.9371 -18.9133 -18.8768 -18.8397 -18.8238
     4.2001   7.5210   8.9803   9.7936  10.4956  10.6994  10.7698

          k = 0.0833 0.1443 0.0784 (  1996 PWs)   bands (ev):

   -40.1290 -40.0749 -19.1840 -18.9335 -18.9127 -18.8848 -18.8423 -18.8304
     4.2968   7.3653   8.9612   9.8086  10.5034  10.5193  10.5929

          k = 0.0833 0.1443 0.1568 (  1988 PWs)   bands (ev):

   -40.1227 -40.0813 -19.1490 -18.9265 -18.9230 -18.8949 -18.8496 -18.8463
     4.5808   6.9116   9.0124   9.8569  10.2081  10.4431  10.5011

          k = 0.0833 0.1443 0.2353 (  2006 PWs)   bands (ev):

   -40.1132 -40.0908 -19.0968 -18.9739 -18.9073 -18.8881 -18.8650 -18.8604
     5.0331   6.2785   9.2048   9.8223   9.9985  10.2961  10.4870

          k = 0.0833 0.1443-0.3137 (  2004 PWs)   bands (ev):

   -40.1020 -40.1020 -19.0350 -19.0350 -18.8895 -18.8895 -18.8716 -18.8716
     5.6188   5.6188   9.4981   9.4981  10.1270  10.1270  10.5430

          k = 0.0833 0.2406 0.0000 (  2010 PWs)   bands (ev):

   -40.1200 -40.0687 -19.1645 -18.9922 -18.9584 -18.9110 -18.8528 -18.8388
     4.7629   7.9186   8.7036   9.3829  10.2661  10.4716  10.7615

          k = 0.0833 0.2406 0.0784 (  2011 PWs)   bands (ev):

   -40.1181 -40.0707 -19.1573 -18.9863 -18.9624 -18.9142 -18.8559 -18.8421
     4.8526   7.7646   8.7014   9.4105  10.2753  10.3924  10.6858

          k = 0.0833 0.2406 0.1568 (  2008 PWs)   bands (ev):

   -40.1125 -40.0763 -19.1362 -18.9870 -18.9632 -18.9149 -18.8646 -18.8533
     5.1161   7.3127   8.7984   9.4859  10.0969  10.3111  10.6364

          k = 0.0833 0.2406 0.2353 (  2012 PWs)   bands (ev):

   -40.1042 -40.0846 -19.1035 -19.0213 -18.9384 -18.9083 -18.8779 -18.8710
     5.5365   6.7035   9.0219   9.5299   9.8825  10.1514  10.6881

          k = 0.0833 0.2406-0.3137 (  2010 PWs)   bands (ev):

   -40.0944 -40.0944 -19.0632 -19.0632 -18.9121 -18.9121 -18.8851 -18.8851
     6.0827   6.0827   9.3124   9.3125   9.9570   9.9573  10.7934

          k = 0.0833 0.3368 0.0000 (  2015 PWs)   bands (ev):

   -40.1062 -40.0650 -19.1230 -19.0604 -19.0131 -18.9426 -18.8667 -18.8612
     5.5315   8.2384   8.4506   9.0064  10.1619  10.2157  10.5202

          k = 0.0833 0.3368 0.0784 (  2012 PWs)   bands (ev):

   -40.1047 -40.0665 -19.1299 -19.0466 -19.0166 -18.9424 -18.8715 -18.8600
     5.6081   8.0872   8.4946   9.0441  10.0724  10.2815  10.5032

          k = 0.0833 0.3368 0.1568 (  2014 PWs)   bands (ev):

   -40.1002 -40.0710 -19.1355 -19.0522 -18.9962 -18.9377 -18.8821 -18.8639
     5.8329   7.6880   8.6433   9.1341   9.9300  10.2306  10.5732

          k = 0.0833 0.3368 0.2353 (  2015 PWs)   bands (ev):

   -40.0935 -40.0777 -19.1286 -19.0808 -18.9580 -18.9269 -18.8960 -18.8775
     6.1904   7.1747   8.8690   9.2065   9.7962  10.0387  10.7626

          k = 0.0833 0.3368-0.3137 (  2010 PWs)   bands (ev):

   -40.0856 -40.0856 -19.1090 -19.1090 -18.9282 -18.9282 -18.8967 -18.8967
     6.6525   6.6525   9.1047   9.1047   9.8404   9.8404  10.9993

          k = 0.0833 0.4330 0.0000 (  2018 PWs)   bands (ev):

   -40.0931 -40.0630 -19.1208 -19.0789 -19.0610 -18.9670 -18.8887 -18.8786
     6.3969   8.2117   8.2692   8.7402  10.0477  10.2884  10.3312

          k = 0.0833 0.4330 0.0784 (  2011 PWs)   bands (ev):

   -40.0919 -40.0641 -19.1399 -19.0791 -19.0434 -18.9644 -18.8900 -18.8779
     6.4494   8.0777   8.3642   8.7915   9.9961  10.2717  10.3751

          k = 0.0833 0.4330 0.1568 (  2019 PWs)   bands (ev):

   -40.0886 -40.0674 -19.1598 -19.1033 -19.0017 -18.9542 -18.8990 -18.8766
     6.6032   7.8227   8.5331   8.9045   9.8923  10.1643  10.5279

          k = 0.0833 0.4330 0.2353 (  2018 PWs)   bands (ev):

   -40.0838 -40.0723 -19.1653 -19.1323 -18.9654 -18.9358 -18.9121 -18.8834
     6.8460   7.4975   8.7562   8.9987   9.8052   9.9780  10.7785

          k = 0.0833 0.4330-0.3137 (  2028 PWs)   bands (ev):

   -40.0780 -40.0780 -19.1552 -19.1552 -18.9405 -18.9405 -18.9015 -18.9015
     7.1557   7.1557   8.9538   8.9538   9.8223   9.8223  11.1035

          k = 0.0833 0.5292 0.0000 (  2016 PWs)   bands (ev):

   -40.0842 -40.0631 -19.1557 -19.0886 -19.0453 -18.9805 -18.9126 -18.8856
     7.1586   7.9579   8.1764   8.5528   9.9815  10.1331  10.5282

          k = 0.0833 0.5292 0.0784 (  2016 PWs)   bands (ev):

   -40.0833 -40.0639 -19.1669 -19.1018 -19.0279 -18.9749 -18.9097 -18.8868
     7.1641   7.9059   8.2778   8.5758   9.9961  10.1400  10.5152

          k = 0.0833 0.5292 0.1568 (  2019 PWs)   bands (ev):

   -40.0811 -40.0662 -19.1840 -19.1309 -18.9970 -18.9568 -18.9126 -18.8861
     7.1973   7.7798   8.4960   8.6819   9.9957  10.0776  10.5878

          k = 0.0833 0.5292 0.2353 (  2021 PWs)   bands (ev):

   -40.0776 -40.0696 -19.1910 -19.1613 -18.9708 -18.9321 -18.9235 -18.8881
     7.2824   7.6035   8.7343   8.8559   9.8908   9.9596  10.8304

          k = 0.0833 0.5292-0.3137 (  2024 PWs)   bands (ev):

   -40.0736 -40.0736 -19.1832 -19.1832 -18.9483 -18.9483 -18.9019 -18.9019
     7.4241   7.4241   8.9018   8.9018   9.8525   9.8526  11.1803

          k = 0.1667 0.2887 0.0000 (  2023 PWs)   bands (ev):

   -40.1082 -40.0654 -19.1291 -19.0303 -19.0227 -18.9313 -18.8764 -18.8577
     5.4176   8.2740   8.5050   9.0114  10.1524  10.1717  10.6087

          k = 0.1667 0.2887 0.0784 (  2021 PWs)   bands (ev):

   -40.1065 -40.0670 -19.1309 -19.0268 -19.0170 -18.9365 -18.8794 -18.8570
     5.4974   8.1180   8.5367   9.0450  10.1214  10.2016  10.5541

          k = 0.1667 0.2887 0.1568 (  2023 PWs)   bands (ev):

   -40.1019 -40.0717 -19.1300 -19.0423 -18.9858 -18.9421 -18.8875 -18.8604
     5.7318   7.6888   8.6796   9.1377   9.9720  10.1923  10.5463

          k = 0.1667 0.2887 0.2353 (  2022 PWs)   bands (ev):

   -40.0950 -40.0786 -19.1189 -19.0687 -18.9515 -18.9391 -18.8969 -18.8737
     6.1054   7.1412   8.9073   9.2352   9.7894   9.9977  10.7200

          k = 0.1667 0.2887-0.3137 (  2004 PWs)   bands (ev):

   -40.0868 -40.0868 -19.0970 -19.0970 -18.9343 -18.9343 -18.8930 -18.8930
     6.5901   6.5901   9.1507   9.1507   9.7974   9.7974  10.9430

          k = 0.1667 0.3849 0.0000 (  2021 PWs)   bands (ev):

   -40.0953 -40.0631 -19.0868 -19.0861 -19.0571 -18.9639 -18.8989 -18.8833
     6.2302   8.3553   8.4311   8.7111   9.9595  10.2384  10.3674

          k = 0.1667 0.3849 0.0784 (  2022 PWs)   bands (ev):

   -40.0940 -40.0643 -19.1165 -19.0771 -19.0332 -18.9685 -18.9031 -18.8776
     6.2937   8.2354   8.4910   8.7563   9.9231  10.2624  10.3170

          k = 0.1667 0.3849 0.1568 (  2026 PWs)   bands (ev):

   -40.0906 -40.0678 -19.1370 -19.0912 -18.9948 -18.9694 -18.9117 -18.8719
     6.4792   7.9456   8.6358   8.8652   9.8272  10.0839  10.4425

          k = 0.1667 0.3849 0.2353 (  2020 PWs)   bands (ev):

   -40.0853 -40.0730 -19.1426 -19.1135 -18.9740 -18.9552 -18.9136 -18.8768
     6.7721   7.5570   8.8376   8.9907   9.6989   9.8412  10.6754

          k = 0.1667 0.3849-0.3137 (  2018 PWs)   bands (ev):

   -40.0792 -40.0792 -19.1334 -19.1334 -18.9602 -18.9602 -18.8942 -18.8942
     7.1455   7.1455   9.0059   9.0059   9.6681   9.6681  10.9838

          k = 0.1667 0.4811 0.0000 (  2023 PWs)   bands (ev):

   -40.0842 -40.0630 -19.1292 -19.0734 -19.0459 -18.9952 -18.9140 -18.9120
     7.0588   8.2576   8.2691   8.5425   9.8758  10.1172  10.4959

          k = 0.1667 0.4811 0.0784 (  2025 PWs)   bands (ev):

   -40.0834 -40.0638 -19.1397 -19.0900 -19.0281 -18.9898 -18.9231 -18.8989
     7.0944   8.1566   8.3601   8.6141   9.8476  10.0542  10.5143

          k = 0.1667 0.4811 0.1568 (  2021 PWs)   bands (ev):

   -40.0811 -40.0661 -19.1574 -19.1156 -19.0140 -18.9650 -18.9317 -18.8852
     7.1990   7.9986   8.5217   8.7744   9.7577   9.8800  10.6022

          k = 0.1667 0.4811 0.2353 (  2018 PWs)   bands (ev):

   -40.0777 -40.0696 -19.1662 -19.1420 -18.9993 -18.9627 -18.9164 -18.8816
     7.3641   7.7953   8.7497   8.9427   9.6283   9.6487  10.7895

          k = 0.1667 0.4811-0.3137 (  2016 PWs)   bands (ev):

   -40.0736 -40.0736 -19.1607 -19.1607 -18.9806 -18.9806 -18.8927 -18.8927
     7.5723   7.5723   8.9571   8.9571   9.5342   9.5342  11.0735

          k = 0.1667 0.5774 0.0000 (  2007 PWs)   bands (ev):

   -40.0793 -40.0639 -19.1447 -19.0777 -19.0251 -19.0086 -18.9282 -18.9193
     7.5646   8.0382   8.2419   8.4475   9.9187   9.9520  10.6240

          k = 0.1667 0.5774 0.0784 (  2023 PWs)   bands (ev):

   -40.0787 -40.0645 -19.1531 -19.0915 -19.0305 -18.9852 -18.9350 -18.9084
     7.5574   8.0249   8.3326   8.4805   9.8817   9.9164  10.6370

          k = 0.1667 0.5774 0.1568 (  2025 PWs)   bands (ev):

   -40.0770 -40.0661 -19.1683 -19.1215 -19.0247 -18.9483 -18.9480 -18.8922
     7.5652   7.9631   8.5616   8.6020   9.7739   9.7840  10.7147

          k = 0.1667 0.5774 0.2353 (  2023 PWs)   bands (ev):

   -40.0745 -40.0686 -19.1764 -19.1511 -19.0089 -18.9669 -18.9142 -18.8846
     7.6205   7.8503   8.8091   8.8432   9.5653   9.6012  10.8933

          k = 0.1667 0.5774-0.3137 (  2030 PWs)   bands (ev):

   -40.0716 -40.0716 -19.1708 -19.1708 -18.9883 -18.9883 -18.8918 -18.8918
     7.7232   7.7232   8.9870   8.9870   9.4412   9.4412  11.1623

          k = 0.2500 0.4330 0.0000 (  2027 PWs)   bands (ev):

   -40.0843 -40.0630 -19.1064 -19.0766 -19.0462 -18.9946 -18.9350 -18.9117
     7.0223   8.3219   8.4522   8.4931   9.8002  10.1270  10.4627

          k = 0.2500 0.4330 0.0784 (  2029 PWs)   bands (ev):

   -40.0835 -40.0638 -19.1085 -19.1047 -19.0140 -19.0048 -18.9373 -18.9010
     7.0694   8.2596   8.4894   8.5688   9.7839  10.0228  10.4730

          k = 0.2500 0.4330 0.1568 (  2026 PWs)   bands (ev):

   -40.0811 -40.0661 -19.1332 -19.1177 -19.0159 -18.9809 -18.9368 -18.8852
     7.2053   8.1208   8.5990   8.7267   9.7168   9.7797  10.5302

          k = 0.2500 0.4330 0.2353 (  2014 PWs)   bands (ev):

   -40.0777 -40.0695 -19.1475 -19.1339 -19.0120 -18.9820 -18.9136 -18.8799
     7.4133   7.9151   8.7688   8.9028   9.5225   9.5805  10.6895

          k = 0.2500 0.4330-0.3137 (  2008 PWs)   bands (ev):

   -40.0736 -40.0736 -19.1467 -19.1467 -18.9977 -18.9977 -18.8899 -18.8899
     7.6640   7.6640   8.9364   8.9364   9.4407   9.4407  10.9744

          k = 0.2500 0.5292 0.0000 (  2027 PWs)   bands (ev):

   -40.0759 -40.0649 -19.1216 -19.0654 -19.0293 -19.0100 -18.9577 -18.9409
     7.7165   8.2682   8.3245   8.3870   9.7741   9.9016  10.6866

          k = 0.2500 0.5292 0.0784 (  2028 PWs)   bands (ev):

   -40.0755 -40.0653 -19.1247 -19.0843 -19.0447 -18.9847 -18.9620 -18.9243
     7.7451   8.2420   8.3556   8.4758   9.7335   9.8065  10.6908

          k = 0.2500 0.5292 0.1568 (  2022 PWs)   bands (ev):

   -40.0743 -40.0665 -19.1370 -19.1115 -19.0544 -18.9839 -18.9371 -18.8999
     7.8241   8.1987   8.4787   8.6587   9.5564   9.6194  10.7262

          k = 0.2500 0.5292 0.2353 (  2019 PWs)   bands (ev):

   -40.0725 -40.0683 -19.1493 -19.1355 -19.0444 -19.0026 -18.9054 -18.8855
     7.9343   8.1389   8.6823   8.8958   9.2564   9.4159  10.8404

          k = 0.2500 0.5292-0.3137 (  2020 PWs)   bands (ev):

   -40.0704 -40.0704 -19.1496 -19.1496 -19.0246 -19.0246 -18.8870 -18.8870
     8.0480   8.0480   8.9469   8.9469   9.1656   9.1656  11.0698

          k = 0.3333 0.5774 0.0000 (  2037 PWs)   bands (ev):

   -40.0692 -40.0692 -19.1122 -19.0507 -19.0507 -18.9834 -18.9742 -18.9742
     8.1673   8.1673   8.2701   8.3612   9.7704   9.7704  10.7813

          k = 0.3333 0.5774 0.0784 (  2013 PWs)   bands (ev):

   -40.0692 -40.0692 -19.1072 -19.0721 -19.0721 -18.9883 -18.9524 -18.9524
     8.2133   8.2133   8.2892   8.3795   9.6928   9.6928  10.7801

          k = 0.3333 0.5774 0.1568 (  2016 PWs)   bands (ev):

   -40.0692 -40.0692 -19.1053 -19.1053 -19.0935 -19.0024 -18.9185 -18.9185
     8.3396   8.3441   8.3441   8.4214   9.4919   9.4919  10.7971

          k = 0.3333 0.5774 0.2353 (  2019 PWs)   bands (ev):

   -40.0692 -40.0692 -19.1293 -19.1293 -19.0727 -19.0235 -18.8940 -18.8940
     8.4023   8.4545   8.5327   8.5327   9.2412   9.2412  10.8836

          k = 0.3333 0.5774-0.3137 (  2034 PWs)   bands (ev):

   -40.0692 -40.0692 -19.1379 -19.1379 -19.0482 -19.0482 -18.8852 -18.8852
     8.4486   8.4486   8.6643   8.6643   9.0856   9.0856  11.0878

     the Fermi energy is     8.8249 ev

!    total energy              =    -306.86529643 Ry
     total all-electron energy =     -3050.006067 Ry
     estimated scf accuracy    <          5.8E-09 Ry
     smearing contrib. (-TS)   =      -0.00103896 Ry
     internal energy E=F+TS    =    -306.86425747 Ry

     The total energy is F=E-TS. E is the sum of the following terms:
     one-electron contribution =     -74.38513814 Ry
     hartree contribution      =      42.27743490 Ry
     xc contribution           =     -34.52948925 Ry
     ewald contribution        =    -126.46581266 Ry
     one-center paw contrib.   =    -113.76125233 Ry

     convergence has been achieved in   8 iterations

     Forces acting on atoms (cartesian axes, Ry/au):

     atom    1 type  1   force =     0.00000000    0.00000000    0.00000000
     atom    2 type  1   force =    -0.00000000   -0.00000000    0.00000000
     The non-local contrib.  to forces
     atom    1 type  1   force =     0.00000000    0.00000000    0.00000000
     atom    2 type  1   force =    -0.00000000   -0.00000000    0.00000000
     The ionic contribution  to forces
     atom    1 type  1   force =     0.00000000   -0.00000000    0.00000000
     atom    2 type  1   force =    -0.00000000    0.00000000    0.00000000
     The local contribution  to forces
     atom    1 type  1   force =     0.00000000    0.00000000    0.00000000
     atom    2 type  1   force =    -0.00000000    0.00000000    0.00000000
     The core correction contribution to forces
     atom    1 type  1   force =    -0.00000000   -0.00000000    0.00000000
     atom    2 type  1   force =     0.00000000   -0.00000000    0.00000000
     The Hubbard contrib.    to forces
     atom    1 type  1   force =     0.00000000    0.00000000    0.00000000
     atom    2 type  1   force =     0.00000000    0.00000000    0.00000000
     The SCF correction term to forces
     atom    1 type  1   force =     0.00000000    0.00000000   -0.00000000
     atom    2 type  1   force =    -0.00000000    0.00000000   -0.00000000

     Total force =     0.000000     Total SCF correction =     0.000000


     Computing stress (Cartesian axis) and pressure

          total   stress  (Ry/bohr**3)                   (kbar)     P=      -56.65
  -0.00034539   0.00000000   0.00000000          -50.81        0.00        0.00
   0.00000000  -0.00034539   0.00000000            0.00      -50.81        0.00
   0.00000000  -0.00000000  -0.00046443            0.00       -0.00      -68.32


     BFGS Geometry Optimization
     Energy error            =      0.0E+00 Ry
     Gradient error          =      9.3E-28 Ry/Bohr
     Cell gradient error     =      6.8E+01 kbar

     number of scf cycles    =   1
     number of bfgs steps    =   0

     enthalpy           new  =    -306.8652964307 Ry

     new trust radius        =       0.0426626339 bohr
     new conv_thr            =       0.0000000100 Ry

     new unit-cell volume =    327.86968 a.u.^3 (    48.58527 Ang^3 )
     density =      3.04839 g/cm^3

CELL_PARAMETERS (alat=  6.25310370)
   0.991365331   0.000000000   0.000000000
  -0.495682665   0.858547561  -0.000000000
   0.000000000   0.000000000   1.575492274

ATOMIC_POSITIONS (crystal)
Sc            0.0000000000        0.0000000000        0.0000000000
Sc            0.6666666667        0.3333333333        0.5000000000



     Writing config-only to output data dir sc_vcrelax.out/scandium.save/
     NEW-OLD atomic charge density approx. for the potential

     Check: negative core charge=   -0.000048
     extrapolated charge   21.35226, renormalised to   22.00000

     total cpu time spent up to now is      135.7 secs

     Self-consistent Calculation

     iteration #  1     ecut=    50.00 Ry     beta= 0.70
     Davidson diagonalization with overlap
     c_bands:  1 eigenvalues not converged
     c_bands:  1 eigenvalues not converged
     c_bands:  1 eigenvalues not converged
     c_bands:  1 eigenvalues not converged
     c_bands:  1 eigenvalues not converged
     c_bands:  4 eigenvalues not converged
     c_bands:  1 eigenvalues not converged
     c_bands:  2 eigenvalues not converged
     c_bands:  2 eigenvalues not converged
     c_bands:  1 eigenvalues not converged
     c_bands:  3 eigenvalues not converged
     c_bands:  1 eigenvalues not converged
     c_bands:  1 eigenvalues not converged
     c_bands:  1 eigenvalues not converged
     c_bands:  2 eigenvalues not converged
     c_bands:  1 eigenvalues not converged
     c_bands:  1 eigenvalues not converged
     c_bands:  2 eigenvalues not converged
     c_bands:  1 eigenvalues not converged
     c_bands:  2 eigenvalues not converged
     c_bands:  2 eigenvalues not converged
     c_bands:  1 eigenvalues not converged
     ethr =  1.00E-06,  avg # of iterations = 18.0

     total cpu time spent up to now is      163.5 secs

     total energy              =    -306.74930898 Ry
     estimated scf accuracy    <       0.08610201 Ry

     iteration #  2     ecut=    50.00 Ry     beta= 0.70
     Davidson diagonalization with overlap
     ethr =  3.91E-04,  avg # of iterations =  7.3

     total cpu time spent up to now is      177.7 secs

     total energy              =    -306.87142173 Ry
     estimated scf accuracy    <       0.15557828 Ry

     iteration #  3     ecut=    50.00 Ry     beta= 0.70
     Davidson diagonalization with overlap
     ethr =  3.91E-04,  avg # of iterations =  1.3

     total cpu time spent up to now is      184.2 secs

     total energy              =    -306.86881868 Ry
     estimated scf accuracy    <       0.04513869 Ry

     iteration #  4     ecut=    50.00 Ry     beta= 0.70
     Davidson diagonalization with overlap
     ethr =  2.05E-04,  avg # of iterations =  3.0

     total cpu time spent up to now is      191.7 secs

     total energy              =    -306.86825162 Ry
     estimated scf accuracy    <       0.02005857 Ry

     iteration #  5     ecut=    50.00 Ry     beta= 0.70
     Davidson diagonalization with overlap
     ethr =  9.12E-05,  avg # of iterations =  2.6

     total cpu time spent up to now is      199.0 secs

     total energy              =    -306.87197098 Ry
     estimated scf accuracy    <       0.00928689 Ry

     iteration #  6     ecut=    50.00 Ry     beta= 0.70
     Davidson diagonalization with overlap
     ethr =  4.22E-05,  avg # of iterations =  1.7

     total cpu time spent up to now is      205.8 secs

     total energy              =    -306.87271650 Ry
     estimated scf accuracy    <       0.01220459 Ry

     iteration #  7     ecut=    50.00 Ry     beta= 0.70
     Davidson diagonalization with overlap
     ethr =  4.22E-05,  avg # of iterations =  1.1

     total cpu time spent up to now is      212.2 secs

     total energy              =    -306.87274377 Ry
     estimated scf accuracy    <       0.01232953 Ry

     iteration #  8     ecut=    50.00 Ry     beta= 0.70
     Davidson diagonalization with overlap
     ethr =  4.22E-05,  avg # of iterations =  1.1

     total cpu time spent up to now is      218.7 secs

     total energy              =    -306.87076996 Ry
     estimated scf accuracy    <       0.01194327 Ry

     iteration #  9     ecut=    50.00 Ry     beta= 0.70
     Davidson diagonalization with overlap
     ethr =  4.22E-05,  avg # of iterations =  1.0

     total cpu time spent up to now is      225.1 secs

     total energy              =    -306.86441562 Ry
     estimated scf accuracy    <       0.00805222 Ry

     iteration # 10     ecut=    50.00 Ry     beta= 0.70
     Davidson diagonalization with overlap
     ethr =  3.66E-05,  avg # of iterations =  5.9

     total cpu time spent up to now is      236.3 secs

     total energy              =    -306.87071552 Ry
     estimated scf accuracy    <       0.00303761 Ry

     iteration # 11     ecut=    50.00 Ry     beta= 0.70
     Davidson diagonalization with overlap
     ethr =  1.38E-05,  avg # of iterations =  4.1

     total cpu time spent up to now is      244.8 secs

     total energy              =    -306.87037964 Ry
     estimated scf accuracy    <       0.00534601 Ry

     iteration # 12     ecut=    50.00 Ry     beta= 0.70
     Davidson diagonalization with overlap
     ethr =  1.38E-05,  avg # of iterations =  1.1

     total cpu time spent up to now is      251.3 secs

     total energy              =    -306.87001303 Ry
     estimated scf accuracy    <       0.00425275 Ry

     iteration # 13     ecut=    50.00 Ry     beta= 0.70
     Davidson diagonalization with overlap
     ethr =  1.38E-05,  avg # of iterations =  1.0

     total cpu time spent up to now is      257.7 secs

     total energy              =    -306.86749483 Ry
     estimated scf accuracy    <       0.00349154 Ry

     iteration # 14     ecut=    50.00 Ry     beta= 0.70
     Davidson diagonalization with overlap
     ethr =  1.38E-05,  avg # of iterations =  4.1

     total cpu time spent up to now is      267.2 secs

     total energy              =    -306.86869847 Ry
     estimated scf accuracy    <       0.00014712 Ry

     iteration # 15     ecut=    50.00 Ry     beta= 0.70
     Davidson diagonalization with overlap
     c_bands:  1 eigenvalues not converged
     ethr =  6.69E-07,  avg # of iterations =  7.7

     total cpu time spent up to now is      278.5 secs

     total energy              =    -306.86874192 Ry
     estimated scf accuracy    <       0.00028732 Ry

     iteration # 16     ecut=    50.00 Ry     beta= 0.70
     Davidson diagonalization with overlap
     ethr =  6.69E-07,  avg # of iterations =  1.2

     total cpu time spent up to now is      285.0 secs

     total energy              =    -306.86870218 Ry
     estimated scf accuracy    <       0.00014475 Ry

     iteration # 17     ecut=    50.00 Ry     beta= 0.70
     Davidson diagonalization with overlap
     ethr =  6.58E-07,  avg # of iterations =  1.8

     total cpu time spent up to now is      292.0 secs

     total energy              =    -306.86867319 Ry
     estimated scf accuracy    <       0.00005181 Ry

     iteration # 18     ecut=    50.00 Ry     beta= 0.70
     Davidson diagonalization with overlap
     ethr =  2.35E-07,  avg # of iterations =  6.1

     total cpu time spent up to now is      302.7 secs

     total energy              =    -306.86870246 Ry
     estimated scf accuracy    <       0.00001577 Ry

     iteration # 19     ecut=    50.00 Ry     beta= 0.70
     Davidson diagonalization with overlap
     ethr =  7.17E-08,  avg # of iterations =  3.6

     total cpu time spent up to now is      310.7 secs

     total energy              =    -306.86870559 Ry
     estimated scf accuracy    <       0.00000041 Ry

     iteration # 20     ecut=    50.00 Ry     beta= 0.70
     Davidson diagonalization with overlap
     ethr =  1.85E-09,  avg # of iterations = 10.8

     total cpu time spent up to now is      325.2 secs

     total energy              =    -306.86870663 Ry
     estimated scf accuracy    <       0.00000023 Ry

     iteration # 21     ecut=    50.00 Ry     beta= 0.70
     Davidson diagonalization with overlap
     ethr =  1.03E-09,  avg # of iterations =  1.7

     total cpu time spent up to now is      331.9 secs

     total energy              =    -306.86870657 Ry
     estimated scf accuracy    <       0.00000011 Ry

     iteration # 22     ecut=    50.00 Ry     beta= 0.70
     Davidson diagonalization with overlap
     ethr =  4.85E-10,  avg # of iterations =  5.9

     total cpu time spent up to now is      342.0 secs

     End of self-consistent calculation

          k = 0.0000 0.0000 0.0000 (  1997 PWs)   bands (ev):

   -39.7395 -39.6658 -18.8475 -18.4773 -18.4773 -18.4119 -18.4119 -18.3928
     4.0284   7.4471   9.7098  10.7240  10.7240  10.8586  11.1489

          k =-0.0000 0.0000 0.0793 (  1973 PWs)   bands (ev):

   -39.7367 -39.6686 -18.8305 -18.4748 -18.4748 -18.4144 -18.4144 -18.4104
     4.1328   7.3018   9.6668  10.6784  10.6784  10.7907  11.0899

          k =-0.0000 0.0000 0.1587 (  1996 PWs)   bands (ev):

   -39.7287 -39.6766 -18.7828 -18.4678 -18.4678 -18.4614 -18.4216 -18.4216
     4.4388   6.8677   9.6524  10.5999  10.6120  10.6120  10.9470

          k =-0.0000 0.0000 0.2380 (  2008 PWs)   bands (ev):

   -39.7168 -39.6886 -18.7106 -18.5365 -18.4573 -18.4573 -18.4323 -18.4323
     4.9236   6.2321   9.7821  10.3265  10.5991  10.5993  10.7860

          k = 0.0000-0.0000-0.3174 (  2014 PWs)   bands (ev):

   -39.7028 -39.7028 -18.6241 -18.6241 -18.4449 -18.4449 -18.4449 -18.4449
     5.5452   5.5452  10.0303  10.0303  10.6599  10.6599  10.6599

          k =-0.0000 0.0971-0.0000 (  2001 PWs)   bands (ev):

   -39.7357 -39.6643 -18.8377 -18.4972 -18.4840 -18.4330 -18.4148 -18.3969
     4.1834   7.5797   9.5745  10.4473  10.8372  11.0237  11.0877

          k =-0.0000 0.0971 0.0793 (  1991 PWs)   bands (ev):

   -39.7330 -39.6670 -18.8219 -18.4944 -18.4813 -18.4421 -18.4174 -18.4075
     4.2862   7.4341   9.5339  10.4426  10.7789  10.8958  11.0191

          k =-0.0000 0.0971 0.1587 (  1998 PWs)   bands (ev):

   -39.7253 -39.6748 -18.7769 -18.4866 -18.4792 -18.4740 -18.4257 -18.4251
     4.5877   6.9980   9.5348  10.4478  10.6135  10.7012  10.9112

          k =-0.0000 0.0971 0.2380 (  1998 PWs)   bands (ev):

   -39.7138 -39.6864 -18.7092 -18.5474 -18.4729 -18.4627 -18.4417 -18.4363
     5.0659   6.3625   9.6869  10.2873  10.4955  10.6853  10.7533

          k =-0.0000 0.0971-0.3174 (  2006 PWs)   bands (ev):

   -39.7001 -39.7001 -18.6286 -18.6286 -18.4577 -18.4577 -18.4495 -18.4495
     5.6804   5.6804   9.9593   9.9593  10.6008  10.6008  10.7465

          k =-0.0000 0.1941-0.0000 (  2004 PWs)   bands (ev):

   -39.7253 -39.6604 -18.8097 -18.5524 -18.5016 -18.4893 -18.4229 -18.4094
     4.6328   7.9339   9.2643  10.0192  10.7909  11.1658  11.1928

          k =-0.0000 0.1941 0.0793 (  1996 PWs)   bands (ev):

   -39.7229 -39.6628 -18.7974 -18.5477 -18.5000 -18.4986 -18.4259 -18.4162
     4.7305   7.7897   9.2351  10.0391  10.7818  10.9274  11.0053

          k =-0.0000 0.1941 0.1587 (  1994 PWs)   bands (ev):

   -39.7159 -39.6699 -18.7623 -18.5407 -18.5258 -18.4901 -18.4346 -18.4343
     5.0170   7.3504   9.2782  10.0971  10.5478  10.7917  10.9107

          k =-0.0000 0.1941 0.2380 (  1998 PWs)   bands (ev):

   -39.7054 -39.6805 -18.7098 -18.5862 -18.5105 -18.4774 -18.4586 -18.4474
     5.4726   6.7217   9.4759  10.0858  10.3241  10.6364  10.9048

          k =-0.0000 0.1941-0.3174 (  2010 PWs)   bands (ev):

   -39.6929 -39.6929 -18.6478 -18.6478 -18.4853 -18.4853 -18.4625 -18.4625
     6.0612   6.0612   9.7781   9.7781  10.4469  10.4469  10.9799

          k =-0.0000 0.2912-0.0000 (  2010 PWs)   bands (ev):

   -39.7105 -39.6556 -18.7677 -18.6283 -18.5635 -18.5249 -18.4348 -18.4304
     5.3283   8.3427   8.9301   9.5826  10.5691  10.8495  10.9389

          k =-0.0000 0.2912 0.0793 (  2016 PWs)   bands (ev):

   -39.7084 -39.6577 -18.7639 -18.6187 -18.5739 -18.5215 -18.4383 -18.4339
     5.4154   8.2065   8.9285   9.6145  10.5370  10.7925  10.9524

          k =-0.0000 0.2912 0.1587 (  2005 PWs)   bands (ev):

   -39.7025 -39.6637 -18.7507 -18.6145 -18.5795 -18.5118 -18.4481 -18.4463
     5.6713   7.7825   9.0357   9.6936  10.3827  10.6824  11.0041

          k =-0.0000 0.2912 0.2380 (  2014 PWs)   bands (ev):

   -39.6936 -39.6726 -18.7263 -18.6509 -18.5445 -18.4972 -18.4703 -18.4628
     6.0784   7.2017   9.2657   9.7324  10.2195  10.5051  11.1093

          k =-0.0000 0.2912-0.3174 (  2006 PWs)   bands (ev):

   -39.6831 -39.6831 -18.6915 -18.6915 -18.5046 -18.5046 -18.4800 -18.4800
     6.6056   6.6056   9.5460   9.5460  10.2984  10.2984  11.2693

          k =-0.0000 0.3883-0.0000 (  2002 PWs)   bands (ev):

   -39.6944 -39.6520 -18.7183 -18.7049 -18.6353 -18.5474 -18.4585 -18.4472
     6.1804   8.4929   8.6581   9.2479  10.6009  10.6021  10.7189

          k =-0.0000 0.3883 0.0793 (  2016 PWs)   bands (ev):

   -39.6928 -39.6537 -18.7468 -18.6714 -18.6407 -18.5437 -18.4583 -18.4511
     6.2479   8.3628   8.7181   9.2906  10.4452  10.6888  10.7703

          k =-0.0000 0.3883 0.1587 (  2015 PWs)   bands (ev):

   -39.6882 -39.6583 -18.7653 -18.6851 -18.6042 -18.5329 -18.4624 -18.4620
     6.4456   8.0351   8.8807   9.3817  10.2931  10.6367  10.9213

          k =-0.0000 0.3883 0.2380 (  2016 PWs)   bands (ev):

   -39.6813 -39.6651 -18.7657 -18.7193 -18.5535 -18.5167 -18.4785 -18.4784
     6.7585   7.6059   9.1123   9.4370  10.2029  10.4600  11.1609

          k =-0.0000 0.3883-0.3174 (  2020 PWs)   bands (ev):

   -39.6732 -39.6732 -18.7489 -18.7489 -18.5096 -18.5096 -18.4976 -18.4976
     7.1594   7.1594   9.3386   9.3386  10.2681  10.2681  11.4680

          k =-0.0000 0.4853-0.0000 (  2016 PWs)   bands (ev):

   -39.6810 -39.6510 -18.7612 -18.6866 -18.6726 -18.5635 -18.4888 -18.4567
     7.0373   8.3195   8.4853   9.0042  10.4323  10.5725  10.8227

          k =-0.0000 0.4853 0.0793 (  2018 PWs)   bands (ev):

   -39.6799 -39.6521 -18.7775 -18.7025 -18.6443 -18.5595 -18.4847 -18.4607
     7.0666   8.2281   8.5862   9.0322  10.4398  10.6371  10.7738

          k =-0.0000 0.4853 0.1587 (  2013 PWs)   bands (ev):

   -39.6766 -39.6554 -18.7986 -18.7346 -18.5948 -18.5480 -18.4800 -18.4724
     7.1578   8.0359   8.7878   9.1298  10.4286  10.6464  10.8273

          k =-0.0000 0.4853 0.2380 (  2026 PWs)   bands (ev):

   -39.6718 -39.6603 -18.8057 -18.7693 -18.5464 -18.5308 -18.4899 -18.4861
     7.3148   7.7867   9.0296   9.2451  10.3668  10.4948  11.1327

          k =-0.0000 0.4853-0.3174 (  2012 PWs)   bands (ev):

   -39.6660 -39.6660 -18.7951 -18.7951 -18.5104 -18.5104 -18.5084 -18.5084
     7.5323   7.5323   9.2241   9.2241  10.3719  10.3719  11.5331

          k = 0.0000-0.5824 0.0000 (  2008 PWs)   bands (ev):

   -39.6754 -39.6513 -18.7819 -18.7050 -18.6510 -18.5693 -18.5046 -18.4601
     7.5495   8.0865   8.4266   8.8910  10.3720  10.5215  10.9256

          k = 0.0000-0.5824 0.0793 (  2016 PWs)   bands (ev):

   -39.6745 -39.6523 -18.7948 -18.7195 -18.6296 -18.5652 -18.4984 -18.4643
     7.5219   8.0659   8.5484   8.8820  10.4322  10.5896  10.8508

          k = 0.0000-0.5824 0.1587 (  2010 PWs)   bands (ev):

   -39.6719 -39.6549 -18.8141 -18.7525 -18.5854 -18.5535 -18.4891 -18.4763
     7.4966   7.9749   8.8314   8.9253  10.5373  10.6624  10.7908

          k = 0.0000-0.5824 0.2380 (  2030 PWs)   bands (ev):

   -39.6680 -39.6588 -18.8219 -18.7874 -18.5411 -18.5360 -18.4942 -18.4900
     7.5352   7.8141   9.0661   9.1133  10.4742  10.5470  11.1147

          k = 0.0000-0.5824-0.3174 (  2032 PWs)   bands (ev):

   -39.6634 -39.6634 -18.8126 -18.8126 -18.5151 -18.5151 -18.5074 -18.5074
     7.6491   7.6491   9.1948   9.1948  10.4531  10.4532  11.5424

          k = 0.0841 0.1456-0.0000 (  1999 PWs)   bands (ev):

   -39.7287 -39.6616 -18.8188 -18.5309 -18.5049 -18.4639 -18.4230 -18.4053
     4.4859   7.8255   9.3572  10.1351  10.8721  11.0745  11.1418

          k = 0.0841 0.1456 0.0793 (  1996 PWs)   bands (ev):

   -39.7261 -39.6641 -18.8052 -18.5268 -18.5042 -18.4730 -18.4259 -18.4125
     4.5854   7.6804   9.3233  10.1504  10.8812  10.8949  10.9614

          k = 0.0841 0.1456 0.1587 (  1988 PWs)   bands (ev):

   -39.7189 -39.6714 -18.7666 -18.5196 -18.5151 -18.4844 -18.4340 -18.4299
     4.8772   7.2412   9.3524  10.1996  10.5753  10.8170  10.8670

          k = 0.0841 0.1456 0.2380 (  2006 PWs)   bands (ev):

   -39.7080 -39.6824 -18.7087 -18.5724 -18.4976 -18.4769 -18.4506 -18.4461
     5.3409   6.6085   9.5379  10.1665  10.3565  10.6641  10.8503

          k = 0.0841 0.1456-0.3174 (  2004 PWs)   bands (ev):

   -39.6952 -39.6952 -18.6402 -18.6402 -18.4778 -18.4778 -18.4586 -18.4586
     5.9392   5.9392   9.8362   9.8362  10.4871  10.4871  10.9086

          k = 0.0841 0.2427-0.0000 (  2010 PWs)   bands (ev):

   -39.7160 -39.6573 -18.7837 -18.5913 -18.5540 -18.5018 -18.4371 -18.4221
     5.0606   8.2275   9.0545   9.7096  10.6390  10.8348  11.1366

          k = 0.0841 0.2427 0.0793 (  2011 PWs)   bands (ev):

   -39.7138 -39.6595 -18.7757 -18.5847 -18.5584 -18.5056 -18.4406 -18.4255
     5.1524   8.0869   9.0372   9.7382  10.6456  10.7615  11.0562

          k = 0.0841 0.2427 0.1587 (  2008 PWs)   bands (ev):

   -39.7074 -39.6659 -18.7523 -18.5860 -18.5589 -18.5065 -18.4504 -18.4375
     5.4221   7.6484   9.1181   9.8163  10.4569  10.6871  11.0029

          k = 0.0841 0.2427 0.2380 (  2012 PWs)   bands (ev):

   -39.6979 -39.6755 -18.7161 -18.6245 -18.5313 -18.4990 -18.4650 -18.4572
     5.8516   7.0376   9.3416   9.8618  10.2376  10.5189  11.0573

          k = 0.0841 0.2427-0.3174 (  2010 PWs)   bands (ev):

   -39.6867 -39.6867 -18.6713 -18.6713 -18.5024 -18.5024 -18.4732 -18.4732
     6.4082   6.4082   9.6396   9.6396  10.3150  10.3151  11.1677

          k = 0.0841 0.3397-0.0000 (  2015 PWs)   bands (ev):

   -39.7005 -39.6532 -18.7377 -18.6662 -18.6134 -18.5368 -18.4522 -18.4470
     5.8422   8.5431   8.7757   9.3269  10.5378  10.5750  10.8896

          k = 0.0841 0.3397 0.0793 (  2012 PWs)   bands (ev):

   -39.6987 -39.6550 -18.7451 -18.6511 -18.6173 -18.5367 -18.4576 -18.4453
     5.9199   8.4084   8.8054   9.3663  10.4345  10.6562  10.8687

          k = 0.0841 0.3397 0.1587 (  2014 PWs)   bands (ev):

   -39.6936 -39.6601 -18.7511 -18.6575 -18.5950 -18.5315 -18.4694 -18.4492
     6.1478   8.0172   8.9513   9.4599  10.2858  10.6065  10.9385

          k = 0.0841 0.3397 0.2380 (  2015 PWs)   bands (ev):

   -39.6859 -39.6678 -18.7433 -18.6897 -18.5529 -18.5192 -18.4849 -18.4641
     6.5098   7.5032   9.1840   9.5352  10.1482  10.4042  11.1356

          k = 0.0841 0.3397-0.3174 (  2010 PWs)   bands (ev):

   -39.6769 -39.6769 -18.7214 -18.7214 -18.5202 -18.5202 -18.4855 -18.4855
     6.9770   6.9770   9.4291   9.4291  10.1962  10.1962  11.3818

          k = 0.0841 0.4368-0.0000 (  2018 PWs)   bands (ev):

   -39.6855 -39.6511 -18.7324 -18.6888 -18.6654 -18.5638 -18.4776 -18.4650
     6.7158   8.5040   8.5736   9.0682  10.4089  10.6496  10.7159

          k = 0.0841 0.4368 0.0793 (  2011 PWs)   bands (ev):

   -39.6842 -39.6524 -18.7544 -18.6864 -18.6478 -18.5609 -18.4784 -18.4646
     6.7674   8.3801   8.6631   9.1202  10.3598  10.6390  10.7505

          k = 0.0841 0.4368 0.1587 (  2019 PWs)   bands (ev):

   -39.6805 -39.6561 -18.7768 -18.7133 -18.6016 -18.5494 -18.4880 -18.4632
     6.9187   8.1296   8.8379   9.2370  10.2554  10.5357  10.8981

          k = 0.0841 0.4368 0.2380 (  2018 PWs)   bands (ev):

   -39.6749 -39.6617 -18.7830 -18.7459 -18.5614 -18.5288 -18.5024 -18.4705
     7.1587   7.8062   9.0728   9.3349  10.1652  10.3447  11.1555

          k = 0.0841 0.4368-0.3174 (  2028 PWs)   bands (ev):

   -39.6683 -39.6683 -18.7717 -18.7717 -18.5339 -18.5339 -18.4905 -18.4905
     7.4660   7.4660   9.2840   9.2840  10.1834  10.1834  11.4928

          k = 0.0841 0.5338-0.0000 (  2016 PWs)   bands (ev):

   -39.6754 -39.6513 -18.7707 -18.6954 -18.6515 -18.5786 -18.5043 -18.4726
     7.4749   8.2512   8.4691   8.8865  10.3513  10.4830  10.9199

          k = 0.0841 0.5338 0.0793 (  2016 PWs)   bands (ev):

   -39.6745 -39.6522 -18.7835 -18.7105 -18.6317 -18.5724 -18.5005 -18.4741
     7.4748   8.2019   8.5792   8.9045  10.3697  10.4938  10.9020

          k = 0.0841 0.5338 0.1587 (  2019 PWs)   bands (ev):

   -39.6719 -39.6548 -18.8030 -18.7434 -18.5969 -18.5521 -18.5030 -18.4736
     7.4976   8.0790   8.8112   9.0094  10.3704  10.4445  10.9656

          k = 0.0841 0.5338 0.2380 (  2021 PWs)   bands (ev):

   -39.6680 -39.6587 -18.8109 -18.7776 -18.5676 -18.5244 -18.5150 -18.4757
     7.5760   7.8999   9.0583   9.1945  10.2516  10.3413  11.2123

          k = 0.0841 0.5338-0.3174 (  2024 PWs)   bands (ev):

   -39.6634 -39.6634 -18.8021 -18.8021 -18.5425 -18.5425 -18.4908 -18.4908
     7.7170   7.7170   9.2376   9.2376  10.2228  10.2228  11.5754

          k = 0.1681 0.2912-0.0000 (  2023 PWs)   bands (ev):

   -39.7026 -39.6536 -18.7445 -18.6327 -18.6247 -18.5240 -18.4629 -18.4431
     5.7272   8.5849   8.8348   9.3264  10.5253  10.5265  10.9834

          k = 0.1681 0.2912 0.0793 (  2021 PWs)   bands (ev):

   -39.7008 -39.6555 -18.7464 -18.6294 -18.6180 -18.5300 -18.4663 -18.4420
     5.8084   8.4465   8.8504   9.3615  10.4757  10.5769  10.9246

          k = 0.1681 0.2912 0.1587 (  2023 PWs)   bands (ev):

   -39.6955 -39.6608 -18.7452 -18.6467 -18.5835 -18.5365 -18.4754 -18.4453
     6.0468   8.0246   8.9892   9.4582  10.3255  10.5661  10.9128

          k = 0.1681 0.2912 0.2380 (  2022 PWs)   bands (ev):

   -39.6876 -39.6688 -18.7328 -18.6764 -18.5455 -18.5328 -18.4859 -18.4597
     6.4262   7.4745   9.2231   9.5605  10.1390  10.3597  11.0928

          k = 0.1681 0.2912-0.3174 (  2004 PWs)   bands (ev):

   -39.6782 -39.6782 -18.7082 -18.7082 -18.5270 -18.5270 -18.4812 -18.4812
     6.9175   6.9175   9.4745   9.4745  10.1493  10.1493  11.3242

          k = 0.1681 0.3883-0.0000 (  2021 PWs)   bands (ev):

   -39.6880 -39.6512 -18.6976 -18.6943 -18.6618 -18.5598 -18.4874 -18.4717
     6.5508   8.6653   8.7361   9.0251  10.3094  10.6196  10.7372

          k = 0.1681 0.3883 0.0793 (  2022 PWs)   bands (ev):

   -39.6866 -39.6526 -18.7294 -18.6847 -18.6360 -18.5652 -18.4922 -18.4649
     6.6144   8.5488   8.7962   9.0726  10.2747  10.6408  10.6842

          k = 0.1681 0.3883 0.1587 (  2026 PWs)   bands (ev):

   -39.6826 -39.6566 -18.7522 -18.7003 -18.5938 -18.5662 -18.5018 -18.4580
     6.8004   8.2634   8.9462   9.1867  10.1788  10.4483  10.8150

          k = 0.1681 0.3883 0.2380 (  2020 PWs)   bands (ev):

   -39.6767 -39.6626 -18.7583 -18.7255 -18.5711 -18.5498 -18.5040 -18.4631
     7.0937   7.8776   9.1569   9.3182  10.0474  10.1956  11.0521

          k = 0.1681 0.3883-0.3174 (  2018 PWs)   bands (ev):

   -39.6696 -39.6696 -18.7479 -18.7479 -18.5556 -18.5556 -18.4823 -18.4823
     7.4671   7.4671   9.3338   9.3338  10.0153  10.0153  11.3702

          k = 0.1681 0.4853-0.0000 (  2023 PWs)   bands (ev):

   -39.6755 -39.6512 -18.7417 -18.6791 -18.6522 -18.5944 -18.5038 -18.5036
     7.3830   8.5551   8.5642   8.8666  10.2284  10.4801  10.8853

          k = 0.1681 0.4853 0.0793 (  2025 PWs)   bands (ev):

   -39.6746 -39.6521 -18.7537 -18.6983 -18.6314 -18.5886 -18.5142 -18.4882
     7.4164   8.4564   8.6586   8.9387  10.2029  10.4148  10.9012

          k = 0.1681 0.4853 0.1587 (  2021 PWs)   bands (ev):

   -39.6720 -39.6548 -18.7738 -18.7270 -18.6156 -18.5609 -18.5237 -18.4727
     7.5154   8.3011   8.8287   9.1057  10.1161  10.2350  10.9856

          k = 0.1681 0.4853 0.2380 (  2018 PWs)   bands (ev):

   -39.6680 -39.6587 -18.7838 -18.7566 -18.5991 -18.5581 -18.5069 -18.4684
     7.6744   8.0991   9.0703   9.2841   9.9819   9.9972  11.1747

          k = 0.1681 0.4853-0.3174 (  2016 PWs)   bands (ev):

   -39.6634 -39.6634 -18.7776 -18.7776 -18.5781 -18.5781 -18.4805 -18.4805
     7.8782   7.8782   9.2949   9.2949   9.8810   9.8810  11.4669

          k = 0.1681 0.5824-0.0000 (  2007 PWs)   bands (ev):

   -39.6699 -39.6523 -18.7587 -18.6835 -18.6291 -18.6093 -18.5216 -18.5095
     7.8826   8.3446   8.5313   8.7721  10.2872  10.2979  11.0176

          k = 0.1681 0.5824 0.0793 (  2023 PWs)   bands (ev):

   -39.6692 -39.6529 -18.7683 -18.6993 -18.6345 -18.5836 -18.5277 -18.4984
     7.8677   8.3337   8.6334   8.8011  10.2511  10.2633  11.0280

          k = 0.1681 0.5824 0.1587 (  2025 PWs)   bands (ev):

   -39.6673 -39.6548 -18.7856 -18.7332 -18.6275 -18.5422 -18.5419 -18.4803
     7.8645   8.2721   8.8847   8.9193  10.1304  10.1446  11.1025

          k = 0.1681 0.5824 0.2380 (  2023 PWs)   bands (ev):

   -39.6644 -39.6577 -18.7948 -18.7666 -18.6097 -18.5626 -18.5044 -18.4716
     7.9148   8.1530   9.1332   9.1873   9.9055   9.9680  11.2834

          k = 0.1681 0.5824-0.3174 (  2030 PWs)   bands (ev):

   -39.6611 -39.6611 -18.7887 -18.7887 -18.5866 -18.5866 -18.4795 -18.4795
     8.0194   8.0194   9.3301   9.3301   9.7891   9.7891  11.5608

          k = 0.2522 0.4368-0.0000 (  2027 PWs)   bands (ev):

   -39.6756 -39.6512 -18.7168 -18.6831 -18.6526 -18.5934 -18.5267 -18.5032
     7.3501   8.6182   8.7588   8.8054  10.1475  10.4929  10.8511

          k = 0.2522 0.4368 0.0793 (  2029 PWs)   bands (ev):

   -39.6746 -39.6521 -18.7191 -18.7156 -18.6154 -18.6051 -18.5294 -18.4909
     7.3964   8.5565   8.7974   8.8857  10.1326  10.3847  10.8598

          k = 0.2522 0.4368 0.1587 (  2026 PWs)   bands (ev):

   -39.6720 -39.6547 -18.7474 -18.7295 -18.6176 -18.5780 -18.5293 -18.4727
     7.5300   8.4217   8.9115   9.0532  10.0672  10.1318  10.9133

          k = 0.2522 0.4368 0.2380 (  2014 PWs)   bands (ev):

   -39.6680 -39.6587 -18.7634 -18.7479 -18.6131 -18.5791 -18.5037 -18.4664
     7.7342   8.2232   9.0898   9.2389   9.8631   9.9285  11.0725

          k = 0.2522 0.4368-0.3174 (  2008 PWs)   bands (ev):

   -39.6634 -39.6634 -18.7624 -18.7624 -18.5968 -18.5968 -18.4773 -18.4773
     7.9793   7.9793   9.2700   9.2700   9.7805   9.7805  11.3646

          k = 0.2522 0.5338-0.0000 (  2027 PWs)   bands (ev):

   -39.6660 -39.6535 -18.7336 -18.6706 -18.6315 -18.6124 -18.5515 -18.5357
     8.0419   8.5801   8.6116   8.7029  10.1242  10.2625  11.0817

          k = 0.2522 0.5338 0.0793 (  2028 PWs)   bands (ev):

   -39.6656 -39.6540 -18.7371 -18.6924 -18.6492 -18.5830 -18.5567 -18.5165
     8.0680   8.5472   8.6569   8.7905  10.0848  10.1642  11.0843

          k = 0.2522 0.5338 0.1587 (  2022 PWs)   bands (ev):

   -39.6642 -39.6553 -18.7512 -18.7228 -18.6600 -18.5807 -18.5299 -18.4889
     8.1410   8.5035   8.7898   8.9811   9.9111   9.9676  11.1170

          k = 0.2522 0.5338 0.2380 (  2019 PWs)   bands (ev):

   -39.6621 -39.6573 -18.7652 -18.7499 -18.6486 -18.6016 -18.4946 -18.4726
     8.2446   8.4439   9.0055   9.2295   9.6011   9.7623  11.2309

          k = 0.2522 0.5338-0.3174 (  2020 PWs)   bands (ev):

   -39.6597 -39.6597 -18.7656 -18.7656 -18.6262 -18.6262 -18.4742 -18.4742
     8.3542   8.3542   9.2843   9.2843   9.5048   9.5048  11.4660

          k = 0.3362 0.5824-0.0000 (  2037 PWs)   bands (ev):

   -39.6585 -39.6585 -18.7236 -18.6547 -18.6547 -18.5793 -18.5727 -18.5727
     8.4875   8.4875   8.5859   8.6447  10.1254  10.1254  11.1798

          k = 0.3362 0.5824 0.0793 (  2013 PWs)   bands (ev):

   -39.6584 -39.6584 -18.7180 -18.6792 -18.6792 -18.5848 -18.5477 -18.5477
     8.5340   8.5340   8.6053   8.6656  10.0466  10.0466  11.1772

          k = 0.3362 0.5824 0.1587 (  2016 PWs)   bands (ev):

   -39.6584 -39.6584 -18.7166 -18.7166 -18.7026 -18.6006 -18.5095 -18.5095
     8.6554   8.6658   8.6658   8.7147   9.8428   9.8428  11.1913

          k = 0.3362 0.5824 0.2380 (  2019 PWs)   bands (ev):

   -39.6584 -39.6584 -18.7435 -18.7435 -18.6794 -18.6242 -18.4819 -18.4819
     8.7167   8.7569   8.8545   8.8545   9.5902   9.5902  11.2766

          k = 0.3362 0.5824-0.3174 (  2034 PWs)   bands (ev):

   -39.6584 -39.6584 -18.7531 -18.7531 -18.6519 -18.6519 -18.4721 -18.4721
     8.7587   8.7587   8.9833   8.9833   9.4369   9.4369  11.4855

     the Fermi energy is     9.1520 ev

!    total energy              =    -306.86870662 Ry
     total all-electron energy =     -3050.009477 Ry
     estimated scf accuracy    <          5.2E-09 Ry
     smearing contrib. (-TS)   =      -0.00101087 Ry
     internal energy E=F+TS    =    -306.86769575 Ry

     The total energy is F=E-TS. E is the sum of the following terms:
     one-electron contribution =     -72.52596795 Ry
     hartree contribution      =      41.67838439 Ry
     xc contribution           =     -34.56684799 Ry
     ewald contribution        =    -127.69241346 Ry
     one-center paw contrib.   =    -113.76085074 Ry

     convergence has been achieved in  22 iterations

     Forces acting on atoms (cartesian axes, Ry/au):

     atom    1 type  1   force =    -0.00000000   -0.00000000    0.00000000
     atom    2 type  1   force =     0.00000000   -0.00000000   -0.00000000
     The non-local contrib.  to forces
     atom    1 type  1   force =    -0.00000000   -0.00000000    0.00000000
     atom    2 type  1   force =     0.00000000   -0.00000000    0.00000000
     The ionic contribution  to forces
     atom    1 type  1   force =     0.00000000   -0.00000000   -0.00000000
     atom    2 type  1   force =    -0.00000000    0.00000000    0.00000000
     The local contribution  to forces
     atom    1 type  1   force =     0.00000000    0.00000000    0.00000000
     atom    2 type  1   force =    -0.00000000    0.00000000    0.00000000
     The core correction contribution to forces
     atom    1 type  1   force =     0.00000000    0.00000000    0.00000000
     atom    2 type  1   force =     0.00000000   -0.00000000   -0.00000000
     The Hubbard contrib.    to forces
     atom    1 type  1   force =     0.00000000    0.00000000    0.00000000
     atom    2 type  1   force =     0.00000000    0.00000000    0.00000000
     The SCF correction term to forces
     atom    1 type  1   force =    -0.00000000   -0.00000000    0.00000000
     atom    2 type  1   force =    -0.00000000    0.00000000   -0.00000000

     Total force =     0.000000     Total SCF correction =     0.000000


     Computing stress (Cartesian axis) and pressure

          total   stress  (Ry/bohr**3)                   (kbar)     P=      -44.82
  -0.00026537   0.00000000   0.00000000          -39.04        0.00        0.00
   0.00000000  -0.00026537   0.00000000            0.00      -39.04        0.00
   0.00000000   0.00000000  -0.00038324            0.00        0.00      -56.38

     Energy error            =      3.4E-03 Ry
     Gradient error          =      1.6E-27 Ry/Bohr
     Cell gradient error     =      5.6E+01 kbar

     number of scf cycles    =   2
     number of bfgs steps    =   1

     enthalpy           old  =    -306.8652964307 Ry
     enthalpy           new  =    -306.8687066152 Ry

     CASE: enthalpy          _new < enthalpy          _old

     new trust radius        =       0.0638129277 bohr
     new conv_thr            =            1.0E-10 Ry

     new unit-cell volume =    314.32406 a.u.^3 (    46.57802 Ang^3 )
     density =      3.17976 g/cm^3

CELL_PARAMETERS (alat=  6.25310370)
   0.979337439   0.000000000   0.000000000
  -0.489668719   0.848131101  -0.000000000
   0.000000000   0.000000000   1.547730685

ATOMIC_POSITIONS (crystal)
Sc           -0.0000000000        0.0000000000        0.0000000000
Sc            0.6666666667        0.3333333333        0.5000000000



     Writing config-only to output data dir sc_vcrelax.out/scandium.save/
     NEW-OLD atomic charge density approx. for the potential

     Check: negative core charge=   -0.000036
     extrapolated charge   21.05211, renormalised to   22.00000

     total cpu time spent up to now is      352.2 secs

     Self-consistent Calculation

     iteration #  1     ecut=    50.00 Ry     beta= 0.70
     Davidson diagonalization with overlap
     c_bands:  1 eigenvalues not converged
     c_bands:  2 eigenvalues not converged
     c_bands:  2 eigenvalues not converged
     c_bands:  1 eigenvalues not converged
     c_bands:  1 eigenvalues not converged
     c_bands:  2 eigenvalues not converged
     c_bands:  3 eigenvalues not converged
     c_bands:  1 eigenvalues not converged
     c_bands:  2 eigenvalues not converged
     c_bands:  1 eigenvalues not converged
     c_bands:  2 eigenvalues not converged
     c_bands:  4 eigenvalues not converged
     c_bands:  1 eigenvalues not converged
     c_bands:  1 eigenvalues not converged
     c_bands:  3 eigenvalues not converged
     c_bands:  2 eigenvalues not converged
     c_bands:  3 eigenvalues not converged
     c_bands:  2 eigenvalues not converged
     c_bands:  4 eigenvalues not converged
     c_bands:  1 eigenvalues not converged
     c_bands:  2 eigenvalues not converged
     c_bands:  3 eigenvalues not converged
     c_bands:  3 eigenvalues not converged
     c_bands:  2 eigenvalues not converged
     c_bands:  4 eigenvalues not converged
     c_bands:  1 eigenvalues not converged
     c_bands:  1 eigenvalues not converged
     c_bands:  1 eigenvalues not converged
     c_bands:  1 eigenvalues not converged
     c_bands:  2 eigenvalues not converged
     c_bands:  2 eigenvalues not converged
     c_bands:  3 eigenvalues not converged
     c_bands:  2 eigenvalues not converged
     c_bands:  3 eigenvalues not converged
     c_bands:  1 eigenvalues not converged
     c_bands:  4 eigenvalues not converged
     c_bands:  3 eigenvalues not converged
     c_bands:  4 eigenvalues not converged
     c_bands:  2 eigenvalues not converged
     c_bands:  2 eigenvalues not converged
     c_bands:  3 eigenvalues not converged
     c_bands:  5 eigenvalues not converged
     c_bands:  5 eigenvalues not converged
     c_bands:  1 eigenvalues not converged
     c_bands:  2 eigenvalues not converged
     c_bands:  2 eigenvalues not converged
     c_bands:  1 eigenvalues not converged
     c_bands:  3 eigenvalues not converged
     c_bands:  4 eigenvalues not converged
     c_bands:  2 eigenvalues not converged
     c_bands:  2 eigenvalues not converged
     c_bands:  1 eigenvalues not converged
     c_bands:  1 eigenvalues not converged
     c_bands:  4 eigenvalues not converged
     c_bands:  5 eigenvalues not converged
     c_bands:  5 eigenvalues not converged
     c_bands:  1 eigenvalues not converged
     c_bands:  3 eigenvalues not converged
     c_bands:  2 eigenvalues not converged
     c_bands:  2 eigenvalues not converged
     c_bands:  1 eigenvalues not converged
     c_bands:  2 eigenvalues not converged
     c_bands:  2 eigenvalues not converged
     c_bands:  1 eigenvalues not converged
     c_bands:  3 eigenvalues not converged
     c_bands:  5 eigenvalues not converged
     c_bands:  1 eigenvalues not converged
     c_bands:  2 eigenvalues not converged
     c_bands:  3 eigenvalues not converged
     c_bands:  2 eigenvalues not converged
     c_bands:  3 eigenvalues not converged
     ethr =  1.00E-06,  avg # of iterations = 20.1

     total cpu time spent up to now is      385.7 secs

     total energy              =    -306.61357967 Ry
     estimated scf accuracy    <       0.18823078 Ry

     iteration #  2     ecut=    50.00 Ry     beta= 0.70
     Davidson diagonalization with overlap
     ethr =  8.56E-04,  avg # of iterations =  7.3

     total cpu time spent up to now is      399.7 secs

     total energy              =    -306.87912054 Ry
     estimated scf accuracy    <       0.32095109 Ry

     iteration #  3     ecut=    50.00 Ry     beta= 0.70
     Davidson diagonalization with overlap
     ethr =  8.56E-04,  avg # of iterations =  1.3

     total cpu time spent up to now is      406.2 secs

     total energy              =    -306.87385304 Ry
     estimated scf accuracy    <       0.09280487 Ry

     iteration #  4     ecut=    50.00 Ry     beta= 0.70
     Davidson diagonalization with overlap
     ethr =  4.22E-04,  avg # of iterations =  2.9

     total cpu time spent up to now is      413.5 secs

     total energy              =    -306.87175398 Ry
     estimated scf accuracy    <       0.04336007 Ry

     iteration #  5     ecut=    50.00 Ry     beta= 0.70
     Davidson diagonalization with overlap
     ethr =  1.97E-04,  avg # of iterations =  2.3

     total cpu time spent up to now is      420.6 secs

     total energy              =    -306.87762691 Ry
     estimated scf accuracy    <       0.02143540 Ry

     iteration #  6     ecut=    50.00 Ry     beta= 0.70
     Davidson diagonalization with overlap
     ethr =  9.74E-05,  avg # of iterations =  1.5

     total cpu time spent up to now is      427.2 secs

     total energy              =    -306.88219906 Ry
     estimated scf accuracy    <       0.02439896 Ry

     iteration #  7     ecut=    50.00 Ry     beta= 0.70
     Davidson diagonalization with overlap
     ethr =  9.74E-05,  avg # of iterations =  1.1

     total cpu time spent up to now is      433.6 secs

     total energy              =    -306.86357325 Ry
     estimated scf accuracy    <       0.03001165 Ry

     iteration #  8     ecut=    50.00 Ry     beta= 0.70
     Davidson diagonalization with overlap
     ethr =  9.74E-05,  avg # of iterations =  4.4

     total cpu time spent up to now is      443.0 secs

     total energy              =    -306.87162088 Ry
     estimated scf accuracy    <       0.00006942 Ry

     iteration #  9     ecut=    50.00 Ry     beta= 0.70
     Davidson diagonalization with overlap
     c_bands:  1 eigenvalues not converged
     c_bands:  1 eigenvalues not converged
     c_bands:  2 eigenvalues not converged
     c_bands:  2 eigenvalues not converged
     c_bands:  1 eigenvalues not converged
     c_bands:  1 eigenvalues not converged
     c_bands:  1 eigenvalues not converged
     c_bands:  2 eigenvalues not converged
     c_bands:  1 eigenvalues not converged
     c_bands:  1 eigenvalues not converged
     ethr =  3.16E-07,  avg # of iterations = 17.7

     total cpu time spent up to now is      472.7 secs

     total energy              =    -306.87374576 Ry
     estimated scf accuracy    <       0.00880843 Ry

     iteration # 10     ecut=    50.00 Ry     beta= 0.70
     Davidson diagonalization with overlap
     ethr =  3.16E-07,  avg # of iterations =  7.2

     total cpu time spent up to now is      484.1 secs

     total energy              =    -306.87475830 Ry
     estimated scf accuracy    <       0.00474668 Ry

     iteration # 11     ecut=    50.00 Ry     beta= 0.70
     Davidson diagonalization with overlap
     ethr =  3.16E-07,  avg # of iterations =  5.2

     total cpu time spent up to now is      494.2 secs

     total energy              =    -306.87039113 Ry
     estimated scf accuracy    <       0.00685980 Ry

     iteration # 12     ecut=    50.00 Ry     beta= 0.70
     Davidson diagonalization with overlap
     ethr =  3.16E-07,  avg # of iterations = 13.7

     total cpu time spent up to now is      516.2 secs

     total energy              =    -306.87206820 Ry
     estimated scf accuracy    <       0.00003306 Ry

     iteration # 13     ecut=    50.00 Ry     beta= 0.70
     Davidson diagonalization with overlap
     ethr =  1.50E-07,  avg # of iterations =  5.2

     total cpu time spent up to now is      526.3 secs

     total energy              =    -306.87209981 Ry
     estimated scf accuracy    <       0.00001261 Ry

     iteration # 14     ecut=    50.00 Ry     beta= 0.70
     Davidson diagonalization with overlap
     ethr =  5.73E-08,  avg # of iterations =  5.1

     total cpu time spent up to now is      535.7 secs

     total energy              =    -306.87206112 Ry
     estimated scf accuracy    <       0.00005101 Ry

     iteration # 15     ecut=    50.00 Ry     beta= 0.70
     Davidson diagonalization with overlap
     ethr =  5.73E-08,  avg # of iterations =  7.8

     total cpu time spent up to now is      547.5 secs

     total energy              =    -306.87207512 Ry
     estimated scf accuracy    <       0.00002934 Ry

     iteration # 16     ecut=    50.00 Ry     beta= 0.70
     Davidson diagonalization with overlap
     ethr =  5.73E-08,  avg # of iterations =  4.9

     total cpu time spent up to now is      557.5 secs

     total energy              =    -306.87208266 Ry
     estimated scf accuracy    <       0.00000017 Ry

     iteration # 17     ecut=    50.00 Ry     beta= 0.70
     Davidson diagonalization with overlap
     ethr =  7.91E-10,  avg # of iterations =  9.9

     total cpu time spent up to now is      571.3 secs

     total energy              =    -306.87208324 Ry
     estimated scf accuracy    <       0.00000021 Ry

     iteration # 18     ecut=    50.00 Ry     beta= 0.70
     Davidson diagonalization with overlap
     ethr =  7.91E-10,  avg # of iterations =  1.3

     total cpu time spent up to now is      577.9 secs

     total energy              =    -306.87208321 Ry
     estimated scf accuracy    <       0.00000038 Ry

     iteration # 19     ecut=    50.00 Ry     beta= 0.70
     Davidson diagonalization with overlap
     ethr =  7.91E-10,  avg # of iterations =  1.0

     total cpu time spent up to now is      584.3 secs

     total energy              =    -306.87208301 Ry
     estimated scf accuracy    <       0.00000032 Ry

     iteration # 20     ecut=    50.00 Ry     beta= 0.70
     Davidson diagonalization with overlap
     ethr =  7.91E-10,  avg # of iterations =  3.7

     total cpu time spent up to now is      593.5 secs

     total energy              =    -306.87208306 Ry
     estimated scf accuracy    <          4.6E-09 Ry

     iteration # 21     ecut=    50.00 Ry     beta= 0.70
     Davidson diagonalization with overlap
     ethr =  2.07E-11,  avg # of iterations = 11.7

     total cpu time spent up to now is      608.2 secs

     total energy              =    -306.87208307 Ry
     estimated scf accuracy    <          2.7E-09 Ry

     iteration # 22     ecut=    50.00 Ry     beta= 0.70
     Davidson diagonalization with overlap
     ethr =  1.22E-11,  avg # of iterations =  4.1

     total cpu time spent up to now is      616.8 secs

     End of self-consistent calculation

[...]
     7.2366   9.3448   9.6929  10.2843  11.6501  11.7931  11.9553

          k =-0.0000 0.3958 0.1665 (  1791 PWs)   bands (ev):

   -38.4238 -38.3758 -17.5898 -17.4654 -17.3544 -17.2779 -17.1707 -17.1627
     7.4419   9.0675   9.8327  10.3968  11.4714  11.8918  11.9665

          k =-0.0000 0.3958 0.2498 (  1795 PWs)   bands (ev):

   -38.4128 -38.3868 -17.5893 -17.5184 -17.2832 -17.2535 -17.1955 -17.1811
     7.7662   8.6395  10.0999  10.4756  11.3618  11.6721  12.2423

          k =-0.0000 0.3958-0.3331 (  1786 PWs)   bands (ev):

   -38.3998 -38.3998 -17.5636 -17.5636 -17.2245 -17.2245 -17.2223 -17.2223
     8.1810   8.1810  10.3692  10.3692  11.4359  11.4359  12.5979

          k =-0.0000 0.4948 0.0000 (  1800 PWs)   bands (ev):

   -38.4145 -38.3663 -17.5595 -17.4693 -17.4468 -17.3204 -17.2102 -17.1587
     8.0226   9.2060   9.4553  10.0159  11.5720  11.6798  12.1240

          k =-0.0000 0.4948 0.0833 (  1799 PWs)   bands (ev):

   -38.4127 -38.3682 -17.5900 -17.4757 -17.4190 -17.3144 -17.2005 -17.1650
     8.0432   9.1510   9.5459  10.0427  11.6470  11.6869  12.0646

          k =-0.0000 0.4948 0.1665 (  1796 PWs)   bands (ev):

   -38.4075 -38.3734 -17.6246 -17.5265 -17.3452 -17.2970 -17.1873 -17.1827
     8.1166   8.9877   9.7627  10.1631  11.6626  11.8680  11.9134

          k =-0.0000 0.4948 0.2498 (  1803 PWs)   bands (ev):

   -38.3996 -38.3812 -17.6358 -17.5804 -17.2746 -17.2710 -17.2091 -17.1913
     8.2610   8.7391  10.0443  10.3192  11.5671  11.7386  12.2232

          k =-0.0000 0.4948-0.3331 (  1798 PWs)   bands (ev):

   -38.3904 -38.3904 -17.6199 -17.6199 -17.2401 -17.2401 -17.2208 -17.2208
     8.4776   8.4776  10.2891  10.2891  11.5790  11.5790  12.6900

          k = 0.0000-0.5937-0.0000 (  1810 PWs)   bands (ev):

   -38.4063 -38.3678 -17.5850 -17.4694 -17.4395 -17.3279 -17.2330 -17.1627
     8.5157   8.9840   9.3708   9.9161  11.5157  11.6316  12.2444

          k = 0.0000-0.5937 0.0833 (  1808 PWs)   bands (ev):

   -38.4048 -38.3692 -17.6089 -17.4943 -17.4029 -17.3217 -17.2199 -17.1690
     8.4641   8.9777   9.5317   9.8899  11.5950  11.7025  12.1504

          k = 0.0000-0.5937 0.1665 (  1814 PWs)   bands (ev):

   -38.4006 -38.3734 -17.6418 -17.5483 -17.3342 -17.3040 -17.1999 -17.1872
     8.4079   8.9072   9.8848   9.9140  11.8245  11.8293  11.9143

          k = 0.0000-0.5937 0.2498 (  1794 PWs)   bands (ev):

   -38.3943 -38.3796 -17.6547 -17.6026 -17.2773 -17.2679 -17.2141 -17.1966
     8.4360   8.7409  10.0821  10.2153  11.6858  11.8272  12.2074

          k = 0.0000-0.5937-0.3331 (  1788 PWs)   bands (ev):

   -38.3870 -38.3870 -17.6410 -17.6410 -17.2458 -17.2458 -17.2195 -17.2195
     8.5585   8.5585  10.2712  10.2712  11.6880  11.6882  12.7082

          k = 0.0857 0.1484 0.0000 (  1793 PWs)   bands (ev):

   -38.4818 -38.3742 -17.6689 -17.2748 -17.2435 -17.1763 -17.1226 -17.0865
     5.4054   8.7876  10.6811  11.1814  12.0698  12.2163  12.2316

          k = 0.0857 0.1484 0.0833 (  1792 PWs)   bands (ev):

   -38.4777 -38.3784 -17.6503 -17.2685 -17.2410 -17.1907 -17.1270 -17.0967
     5.5168   8.6901  10.5721  11.1928  12.0413  12.0747  12.1104

          k = 0.0857 0.1484 0.1665 (  1788 PWs)   bands (ev):

   -38.4662 -38.3901 -17.5972 -17.2551 -17.2504 -17.2141 -17.1394 -17.1219
     5.8426   8.3302  10.4768  11.2314  11.7767  11.9117  12.0518

          k = 0.0857 0.1484 0.2498 (  1780 PWs)   bands (ev):

   -38.4488 -38.4077 -17.5171 -17.3279 -17.2234 -17.2023 -17.1576 -17.1537
     6.3560   7.7137  10.6094  11.2135  11.5290  11.8167  11.9300

          k = 0.0857 0.1484-0.3331 (  1770 PWs)   bands (ev):

   -38.4283 -38.4283 -17.4221 -17.4221 -17.1936 -17.1936 -17.1760 -17.1760
     7.0078   7.0078  10.9108  10.9108  11.6251  11.6251  11.9845

          k = 0.0857 0.2474 0.0000 (  1801 PWs)   bands (ev):

   -38.4642 -38.3700 -17.6215 -17.3486 -17.2986 -17.2296 -17.1384 -17.1119
     6.0098   9.1832  10.2558  10.7040  11.8500  11.9171  12.2561

          k = 0.0857 0.2474 0.0833 (  1794 PWs)   bands (ev):

   -38.4606 -38.3736 -17.6107 -17.3386 -17.3026 -17.2386 -17.1436 -17.1153
     6.1115   9.1060  10.1628  10.7348  11.8119  11.9354  12.1510

          k = 0.0857 0.2474 0.1665 (  1790 PWs)   bands (ev):

   -38.4505 -38.3838 -17.5793 -17.3415 -17.3001 -17.2430 -17.1581 -17.1299
     6.4090   8.7544  10.1374  10.8184  11.6110  11.9177  12.0661

          k = 0.0857 0.2474 0.2498 (  1783 PWs)   bands (ev):

   -38.4352 -38.3992 -17.5294 -17.3986 -17.2592 -17.2293 -17.1787 -17.1589
     6.8793   8.1476  10.3422  10.8708  11.3941  11.7065  12.1343

          k = 0.0857 0.2474-0.3331 (  1784 PWs)   bands (ev):

   -38.4172 -38.4172 -17.4663 -17.4663 -17.2210 -17.2210 -17.1902 -17.1902
     7.4816   7.4816  10.6569  10.6569  11.4677  11.4677  12.2637

          k = 0.0857 0.3463 0.0000 (  1798 PWs)   bands (ev):

   -38.4423 -38.3664 -17.5588 -17.4415 -17.3645 -17.2801 -17.1552 -17.1489
     6.8223   9.4700   9.8599  10.2967  11.6633  11.7828  12.0198

          k = 0.0857 0.3463 0.0833 (  1800 PWs)   bands (ev):

   -38.4395 -38.3693 -17.5680 -17.4214 -17.3704 -17.2822 -17.1630 -17.1443
     6.9058   9.4243   9.8071  10.3439  11.5810  11.8566  11.9822

          k = 0.0857 0.3463 0.1665 (  1793 PWs)   bands (ev):

   -38.4313 -38.3776 -17.5751 -17.4320 -17.3418 -17.2751 -17.1800 -17.1458
     7.1499   9.0990   9.9047  10.4545  11.4295  11.8346  12.0140

          k = 0.0857 0.3463 0.2498 (  1792 PWs)   bands (ev):

   -38.4190 -38.3899 -17.5631 -17.4818 -17.2854 -17.2527 -17.2026 -17.1649
     7.5357   8.5793  10.1633  10.5500  11.2841  11.5880  12.2338

          k = 0.0857 0.3463-0.3331 (  1792 PWs)   bands (ev):

   -38.4045 -38.4045 -17.5300 -17.5300 -17.2461 -17.2461 -17.1992 -17.1992
     8.0297   8.0297  10.4423  10.4423  11.3400  11.3400  12.5100

          k = 0.0857 0.4453 0.0000 (  1796 PWs)   bands (ev):

   -38.4210 -38.3657 -17.5239 -17.4916 -17.4235 -17.3179 -17.1938 -17.1696
     7.7105   9.3990   9.5667  10.0557  11.5102  11.7871  11.9979

          k = 0.0857 0.4453 0.0833 (  1795 PWs)   bands (ev):

   -38.4189 -38.3678 -17.5655 -17.4641 -17.4150 -17.3145 -17.1905 -17.1704
     7.7603   9.3409   9.6049  10.1170  11.5035  11.7557  12.0031

          k = 0.0857 0.4453 0.1665 (  1802 PWs)   bands (ev):

   -38.4129 -38.3738 -17.6001 -17.5015 -17.3546 -17.2956 -17.2020 -17.1656
     7.9077   9.1196   9.7874  10.2622  11.4215  11.7125  12.0450

          k = 0.0857 0.4453 0.2498 (  1793 PWs)   bands (ev):

   -38.4040 -38.3828 -17.6090 -17.5520 -17.3032 -17.2581 -17.2235 -17.1726
     8.1453   8.7983  10.0702  10.3941  11.3152  11.5220  12.2862

          k = 0.0857 0.4453-0.3331 (  1792 PWs)   bands (ev):

   -38.3934 -38.3934 -17.5914 -17.5914 -17.2667 -17.2667 -17.2008 -17.2008
     8.4542   8.4542  10.3350  10.3350  11.3330  11.3330  12.6598

          k = 0.0857 0.5442 0.0000 (  1801 PWs)   bands (ev):

   -38.4064 -38.3677 -17.5716 -17.4581 -17.4400 -17.3382 -17.2325 -17.1781
     8.4522   9.1503   9.4122   9.8979  11.4622  11.6248  12.2309

          k = 0.0857 0.5442 0.0833 (  1795 PWs)   bands (ev):

   -38.4049 -38.3691 -17.5953 -17.4846 -17.4060 -17.3285 -17.2220 -17.1812
     8.4352   9.1204   9.5439   9.9076  11.4986  11.6450  12.1818

          k = 0.0857 0.5442 0.1665 (  1802 PWs)   bands (ev):

   -38.4007 -38.3733 -17.6281 -17.5378 -17.3552 -17.2946 -17.2206 -17.1801
     8.4307   9.0207   9.8069  10.0343  11.5139  11.6590  12.1527

          k = 0.0857 0.5442 0.2498 (  1799 PWs)   bands (ev):

   -38.3944 -38.3796 -17.6413 -17.5912 -17.3150 -17.2500 -17.2377 -17.1794
     8.4961   8.8380  10.0802  10.2828  11.3899  11.5697  12.3694

          k = 0.0857 0.5442-0.3331 (  1800 PWs)   bands (ev):

   -38.3870 -38.3870 -17.6284 -17.6284 -17.2788 -17.2788 -17.1998 -17.1998
     8.6415   8.6415  10.3147  10.3147  11.3976  11.3976  12.7715

          k = 0.1714 0.2969 0.0000 (  1799 PWs)   bands (ev):

   -38.4454 -38.3668 -17.5679 -17.3969 -17.3879 -17.2578 -17.1690 -17.1432
     6.7053   9.5265   9.9380  10.2848  11.5956  11.7562  12.1231

          k = 0.1714 0.2969 0.0833 (  1795 PWs)   bands (ev):

   -38.4424 -38.3698 -17.5706 -17.3938 -17.3759 -17.2693 -17.1743 -17.1390
     6.7934   9.4850   9.8624  10.3252  11.5627  11.8108  12.0434

          k = 0.1714 0.2969 0.1665 (  1791 PWs)   bands (ev):

   -38.4339 -38.3783 -17.5688 -17.4195 -17.3264 -17.2808 -17.1888 -17.1397
     7.0513   9.1326   9.9426  10.4378  11.4404  11.7946  12.0031

          k = 0.1714 0.2969 0.2498 (  1783 PWs)   bands (ev):

   -38.4212 -38.3911 -17.5504 -17.4656 -17.2728 -17.2727 -17.2052 -17.1580
     7.4593   8.5703  10.1986  10.5610  11.2616  11.5293  12.2061

          k = 0.1714 0.2969-0.3331 (  1792 PWs)   bands (ev):

   -38.4062 -38.4062 -17.5140 -17.5140 -17.2569 -17.2569 -17.1917 -17.1917
     7.9834   7.9834  10.4783  10.4783  11.2799  11.2799  12.4564

          k = 0.1714 0.3958 0.0000 (  1792 PWs)   bands (ev):

   -38.4246 -38.3656 -17.5037 -17.4761 -17.4286 -17.3042 -17.1976 -17.1851
     7.5522   9.6548   9.6746   9.9750  11.3863  11.8832  11.8898

          k = 0.1714 0.3958 0.0833 (  1792 PWs)   bands (ev):

   -38.4224 -38.3678 -17.5404 -17.4650 -17.3973 -17.3155 -17.2052 -17.1716
     7.6183   9.5669   9.7203  10.0351  11.3696  11.7939  11.9146

          k = 0.1714 0.3958 0.1665 (  1795 PWs)   bands (ev):

   -38.4160 -38.3742 -17.5721 -17.4877 -17.3436 -17.3138 -17.2204 -17.1570
     7.8108   9.2949   9.8965  10.1746  11.2938  11.5963  11.9955

          k = 0.1714 0.3958 0.2498 (  1800 PWs)   bands (ev):

   -38.4064 -38.3838 -17.5799 -17.5277 -17.3205 -17.2815 -17.2234 -17.1612
     8.1133   8.9128  10.1496  10.3376  11.1582  11.3212  12.2127

          k = 0.1714 0.3958-0.3331 (  1792 PWs)   bands (ev):

   -38.3951 -38.3951 -17.5631 -17.5631 -17.2957 -17.2957 -17.1881 -17.1881
     8.4964   8.4964  10.3637  10.3637  11.1165  11.1165  12.5478

          k = 0.1714 0.4948 0.0000 (  1792 PWs)   bands (ev):

   -38.4065 -38.3675 -17.5364 -17.4436 -17.4411 -17.3517 -17.2313 -17.2166
     8.3829   9.4621   9.5035   9.8427  11.3166  11.6435  12.1801

          k = 0.1714 0.4948 0.0833 (  1795 PWs)   bands (ev):

   -38.4050 -38.3690 -17.5587 -17.4790 -17.4007 -17.3448 -17.2343 -17.2026
     8.4103   9.4018   9.5803   9.9234  11.3108  11.5654  12.1747

          k = 0.1714 0.4948 0.1665 (  1794 PWs)   bands (ev):

   -38.4008 -38.3732 -17.5924 -17.5212 -17.3823 -17.2982 -17.2474 -17.1771
     8.4962   9.2622   9.7800  10.1255  11.2485  11.3692  12.2102

          k = 0.1714 0.4948 0.2498 (  1796 PWs)   bands (ev):

   -38.3945 -38.3795 -17.6084 -17.5671 -17.3576 -17.2937 -17.2226 -17.1678
     8.6437   9.0635  10.0764  10.3574  11.0727  11.1338  12.3759

          k = 0.1714 0.4948-0.3331 (  1796 PWs)   bands (ev):

   -38.3870 -38.3870 -17.5993 -17.5993 -17.3251 -17.3251 -17.1838 -17.1838
     8.8427   8.8427  10.3688  10.3688  10.9733  10.9733  12.6844

          k = 0.1714 0.5937 0.0000 (  1795 PWs)   bands (ev):

   -38.3982 -38.3699 -17.5581 -17.4447 -17.4090 -17.3740 -17.2574 -17.2233
     8.8560   9.2753   9.4444   9.7586  11.3391  11.5073  12.3301

          k = 0.1714 0.5937 0.0833 (  1800 PWs)   bands (ev):

   -38.3971 -38.3710 -17.5754 -17.4725 -17.4134 -17.3362 -17.2541 -17.2143
     8.8194   9.2781   9.5832   9.7777  11.3208  11.4668  12.3157

          k = 0.1714 0.5937 0.1665 (  1800 PWs)   bands (ev):

   -38.3940 -38.3740 -17.6051 -17.5278 -17.3999 -17.2740 -17.2698 -17.1873
     8.7914   9.2313   9.8940   9.9032  11.2148  11.3470  12.3399

          k = 0.1714 0.5937 0.2498 (  1799 PWs)   bands (ev):

   -38.3894 -38.3786 -17.6209 -17.5795 -17.3716 -17.2999 -17.2181 -17.1720
     8.8355   9.1022  10.1452  10.2785  10.9806  11.1401  12.5006

          k = 0.1714 0.5937-0.3331 (  1800 PWs)   bands (ev):

   -38.3840 -38.3840 -17.6126 -17.6126 -17.3360 -17.3360 -17.1820 -17.1820
     8.9503   8.9503  10.4201  10.4201  10.8871  10.8871  12.7989

          k = 0.2571 0.4453 0.0000 (  1789 PWs)   bands (ev):

   -38.4066 -38.3675 -17.5066 -17.4547 -17.4416 -17.3437 -17.2444 -17.2307
     8.3612   9.5548   9.6926   9.7397  11.2350  11.6573  12.1385

          k = 0.2571 0.4453 0.0833 (  1797 PWs)   bands (ev):

   -38.4051 -38.3689 -17.5145 -17.5094 -17.3741 -17.3654 -17.2497 -17.2082
     8.4071   9.4930   9.7375   9.8426  11.2290  11.5313  12.1361

          k = 0.2571 0.4453 0.1665 (  1798 PWs)   bands (ev):

   -38.4008 -38.3732 -17.5619 -17.5261 -17.3860 -17.3153 -17.2538 -17.1767
     8.5393   9.3748   9.8727  10.0535  11.1786  11.2429  12.1563

          k = 0.2571 0.4453 0.2498 (  1795 PWs)   bands (ev):

   -38.3945 -38.3795 -17.5849 -17.5572 -17.3761 -17.3190 -17.2168 -17.1644
     8.7386   9.1995  10.0901  10.2910  10.9312  11.0334  12.2876

          k = 0.2571 0.4453-0.3331 (  1794 PWs)   bands (ev):

   -38.3870 -38.3870 -17.5816 -17.5816 -17.3486 -17.3486 -17.1786 -17.1786
     8.9734   8.9734  10.3247  10.3247  10.8460  10.8460  12.5868

          k = 0.2571 0.5442 0.0000 (  1794 PWs)   bands (ev):

   -38.3924 -38.3723 -17.5301 -17.4366 -17.3920 -17.3856 -17.2773 -17.2733
     9.0320   9.4989   9.5261   9.6570  11.2275  11.4328  12.3949

          k = 0.2571 0.5442 0.0833 (  1794 PWs)   bands (ev):

   -38.3917 -38.3731 -17.5357 -17.4765 -17.4234 -17.3318 -17.2840 -17.2427
     9.0522   9.4795   9.5849   9.7465  11.1942  11.3231  12.3841

          k = 0.2571 0.5442 0.1665 (  1793 PWs)   bands (ev):

   -38.3894 -38.3752 -17.5615 -17.5210 -17.4408 -17.3154 -17.2547 -17.1986
     9.1127   9.4519   9.7485   9.9663  11.0460  11.0824  12.3867

          k = 0.2571 0.5442 0.2498 (  1798 PWs)   bands (ev):

   -38.3862 -38.3784 -17.5854 -17.5626 -17.4203 -17.3468 -17.2028 -17.1723
     9.2068   9.3999  10.0102  10.2599  10.7007  10.8690  12.4791

          k = 0.2571 0.5442-0.3331 (  1802 PWs)   bands (ev):

   -38.3823 -38.3823 -17.5866 -17.5866 -17.3848 -17.3848 -17.1733 -17.1733
     9.3127   9.3127  10.3381  10.3381  10.5818  10.5818  12.7219

          k = 0.3428 0.5937 0.0000 (  1779 PWs)   bands (ev):

   -38.3807 -38.3807 -17.5219 -17.4182 -17.4182 -17.3297 -17.3297 -17.3042
     9.4512   9.4512   9.5071   9.5517  11.2694  11.2694  12.5061

          k = 0.3428 0.5937 0.0833 (  1797 PWs)   bands (ev):

   -38.3806 -38.3806 -17.5138 -17.4612 -17.4612 -17.3128 -17.2862 -17.2862
     9.5025   9.5025   9.5384   9.5730  11.1853  11.1853  12.4931

          k = 0.3428 0.5937 0.1665 (  1800 PWs)   bands (ev):

   -38.3806 -38.3806 -17.5193 -17.5193 -17.4907 -17.3368 -17.2267 -17.2267
     9.6157   9.6283   9.6483   9.6483  10.9690  10.9690  12.4825

          k = 0.3428 0.5937 0.2498 (  1797 PWs)   bands (ev):

   -38.3806 -38.3806 -17.5597 -17.5597 -17.4558 -17.3724 -17.1847 -17.1847
     9.6912   9.6935   9.8519   9.8519  10.7037  10.7037  12.5463

          k = 0.3428 0.5937-0.3331 (  1830 PWs)   bands (ev):

   -38.3806 -38.3806 -17.5742 -17.5742 -17.4144 -17.4144 -17.1699 -17.1699
     9.7224   9.7224   9.9832   9.9832  10.5488  10.5488  12.7586

     the Fermi energy is    10.1757 ev

!    total energy              =    -306.87189572 Ry
     total all-electron energy =     -3050.012667 Ry
     estimated scf accuracy    <          2.1E-12 Ry
     smearing contrib. (-TS)   =      -0.00077301 Ry
     internal energy E=F+TS    =    -306.87112271 Ry

     The total energy is F=E-TS. E is the sum of the following terms:
     one-electron contribution =     -66.93947983 Ry
     hartree contribution      =      39.91803666 Ry
     xc contribution           =     -34.68673880 Ry
     ewald contribution        =    -131.40261159 Ry
     one-center paw contrib.   =    -113.76032915 Ry

     convergence has been achieved in  11 iterations

     Forces acting on atoms (cartesian axes, Ry/au):

     atom    1 type  1   force =     0.00000000    0.00000000    0.00000000
     atom    2 type  1   force =     0.00000000    0.00000000    0.00000000
     The non-local contrib.  to forces
     atom    1 type  1   force =    -0.00000000    0.00000000    0.00000000
     atom    2 type  1   force =    -0.00000000   -0.00000000   -0.00000000
     The ionic contribution  to forces
     atom    1 type  1   force =     0.00000000   -0.00000000    0.00000000
     atom    2 type  1   force =    -0.00000000    0.00000000   -0.00000000
     The local contribution  to forces
     atom    1 type  1   force =    -0.00000000    0.00000000    0.00000000
     atom    2 type  1   force =    -0.00000000    0.00000000   -0.00000000
     The core correction contribution to forces
     atom    1 type  1   force =     0.00000000   -0.00000000    0.00000000
     atom    2 type  1   force =     0.00000000   -0.00000000    0.00000000
     The Hubbard contrib.    to forces
     atom    1 type  1   force =     0.00000000    0.00000000    0.00000000
     atom    2 type  1   force =     0.00000000    0.00000000    0.00000000
     The SCF correction term to forces
     atom    1 type  1   force =    -0.00000000    0.00000000    0.00000000
     atom    2 type  1   force =     0.00000000    0.00000000    0.00000000

     Total force =     0.000000     Total SCF correction =     0.000000


     Computing stress (Cartesian axis) and pressure

          total   stress  (Ry/bohr**3)                   (kbar)     P=        3.61
   0.00002287  -0.00000000   0.00000000            3.36       -0.00        0.00
  -0.00000000   0.00002287  -0.00000000           -0.00        3.36       -0.00
  -0.00000000  -0.00000000   0.00002781           -0.00       -0.00        4.09


     Writing all to output data dir sc_vcrelax.out/scandium.save/

     init_run     :     10.55s CPU     10.63s WALL (       2 calls)
     electrons    :   2042.57s CPU   2075.16s WALL (      10 calls)
     update_pot   :     10.87s CPU     10.89s WALL (       8 calls)
     forces       :     14.58s CPU     14.72s WALL (      10 calls)
     stress       :     67.94s CPU     68.55s WALL (      10 calls)

     Called by init_run:
     wfcinit      :      6.55s CPU      6.60s WALL (       2 calls)
     potinit      :      0.74s CPU      0.75s WALL (       2 calls)
     hinit0       :      3.15s CPU      3.15s WALL (       2 calls)

     Called by electrons:
     c_bands      :   1828.34s CPU   1855.98s WALL (     182 calls)
     sum_band     :    190.00s CPU    192.74s WALL (     182 calls)
     v_of_rho     :      0.93s CPU      0.94s WALL (     190 calls)
     newd         :      7.53s CPU      9.31s WALL (     190 calls)
     PAW_pot      :     16.94s CPU     16.95s WALL (     198 calls)
     mix_rho      :      0.60s CPU      0.65s WALL (     182 calls)

     Called by c_bands:
     init_us_2    :     28.94s CPU     31.29s WALL (   37430 calls)
     init_us_2:cp :     28.83s CPU     31.21s WALL (   37430 calls)
     cegterg      :   1767.36s CPU   1774.81s WALL (   17318 calls)

     Called by *egterg:
     cdiaghg      :     28.57s CPU     28.78s WALL (  120075 calls)
     h_psi        :   1255.35s CPU   1261.43s WALL (  121243 calls)
     s_psi        :    104.77s CPU    105.17s WALL (  121243 calls)
     g_psi        :     10.21s CPU     10.27s WALL (  103735 calls)

     Called by h_psi:
     h_psi:calbec :    100.42s CPU    100.78s WALL (  121243 calls)
     vloc_psi     :   1046.98s CPU   1052.47s WALL (  121243 calls)
     add_vuspsi   :    104.39s CPU    104.67s WALL (  121243 calls)

     General routines
     calbec       :    134.95s CPU    135.45s WALL (  144043 calls)
     fft          :      0.67s CPU      0.67s WALL (     850 calls)
     ffts         :      0.15s CPU      0.15s WALL (     182 calls)
     fftw         :   1060.29s CPU   1066.05s WALL ( 2228590 calls)

     Parallel routines

     PWSCF        :  35m49.76s CPU  36m26.47s WALL


   This run was terminated on:  15:28:34  16Jun2023            

=------------------------------------------------------------------------------=
   JOB DONE.
=------------------------------------------------------------------------------=
