
     Program PWSCF v.7.2 starts on 21Jul2023 at 12:21:58 

     This program is part of the open-source Quantum ESPRESSO suite
     for quantum simulation of materials; please cite
         "P. Giannozzi et al., J. Phys.:Condens. Matter 21 395502 (2009);
         "P. Giannozzi et al., J. Phys.:Condens. Matter 29 465901 (2017);
         "P. Giannozzi et al., J. Chem. Phys. 152 154105 (2020);
          URL http://www.quantum-espresso.org", 
     in publications or presentations arising from this work. More details at
     http://www.quantum-espresso.org/quote

     Parallel version (MPI), running on    20 processors

     MPI processes distributed on     1 nodes
     316180 MiB available memory on the printing compute node when the environment starts

     Waiting for input...
     Reading input from standard input

     Current dimensions of program PWSCF are:
     Max number of different atomic species (ntypx) = 10
     Max number of k-points (npk) = 120000
     Max angular momentum in pseudopotentials (lmaxx) =  4
     file Sc.pz-spn-kjpaw_psl.1.0.0.UPF: wavefunction(s)  3S 3P 3D renormalized

     K-points division:     npool     =       4
     R & G space division:  proc/nbgrp/npool/nimage =       5
     Subspace diagonalization in iterative solution of the eigenvalue problem:
     a serial algorithm will be used


     Parallelization info
     --------------------
     sticks:   dense  smooth     PW     G-vecs:    dense   smooth      PW
     Min         191     109     32                 7799     3225     538
     Max         191     110     33                 7799     3228     543
     Sum         955     547    163                38995    16131    2707

     Using Slab Decomposition



     bravais-lattice index     =            4
     lattice parameter (alat)  =       6.2531  a.u.
     unit-cell volume          =     337.5249 (a.u.)^3
     number of atoms/cell      =            2
     number of atomic types    =            1
     number of electrons       =        22.00
     number of Kohn-Sham states=           15
     kinetic-energy cutoff     =      50.0000  Ry
     charge density cutoff     =     360.0000  Ry
     scf convergence threshold =      1.0E-08
     mixing beta               =       0.7000
     number of iterations used =            8  plain     mixing
     energy convergence thresh.=      1.0E-04
     force convergence thresh. =      1.0E-03
     press convergence thresh. =      5.0E-01
     Exchange-correlation= SLA  PZ   NOGX NOGC
                           (   1   1   0   0   0   0   0)
     nstep                     =           50


     celldm(1)=   6.253104  celldm(2)=   0.000000  celldm(3)=   1.594000
     celldm(4)=   0.000000  celldm(5)=   0.000000  celldm(6)=   0.000000

     crystal axes: (cart. coord. in units of alat)
               a(1) = (   1.000000   0.000000   0.000000 )  
               a(2) = (  -0.500000   0.866025   0.000000 )  
               a(3) = (   0.000000   0.000000   1.594000 )  

     reciprocal axes: (cart. coord. in units 2 pi/alat)
               b(1) = (  1.000000  0.577350 -0.000000 )  
               b(2) = (  0.000000  1.154701  0.000000 )  
               b(3) = (  0.000000 -0.000000  0.627353 )  


     PseudoPot. # 1 for Sc read from file:
     ../../../Sc.pz-spn-kjpaw_psl.1.0.0.UPF
     MD5 check sum: 1f9095df0bb42a6568b4e9f256ff075f
     Pseudo is Projector augmented-wave + core cor, Zval = 11.0
     Generated using 'atomic' code by A. Dal Corso  v.7.1
     Shape of augmentation charge: PSQ
     Using radial grid of 1173 points,  6 beta functions with: 
                l(1) =   0
                l(2) =   0
                l(3) =   1
                l(4) =   1
                l(5) =   2
                l(6) =   2
     Q(r) pseudized with 0 coefficients 


     atomic species   valence    mass     pseudopotential
        Sc            11.00    44.59600     Sc( 1.00)

     24 Sym. Ops., with inversion, found (12 have fractional translation)



   Cartesian axes

     site n.     atom                  positions (alat units)
         1           Sc  tau(   1) = (   0.0000000   0.0000000   0.0000000  )
         2           Sc  tau(   2) = (   0.5000000   0.2886751   0.7970000  )

     number of k points=    95  Marzari-Vanderbilt smearing, width (Ry)=  0.0200
                       cart. coord. in units 2pi/alat
        k(    1) = (   0.0000000   0.0000000   0.0000000), wk =   0.0017361
        k(    2) = (   0.0000000   0.0000000   0.0784191), wk =   0.0034722
        k(    3) = (   0.0000000   0.0000000   0.1568381), wk =   0.0034722
        k(    4) = (   0.0000000   0.0000000   0.2352572), wk =   0.0034722
        k(    5) = (   0.0000000   0.0000000  -0.3136763), wk =   0.0017361
        k(    6) = (   0.0000000   0.0962250   0.0000000), wk =   0.0104167
        k(    7) = (   0.0000000   0.0962250   0.0784191), wk =   0.0208333
        k(    8) = (   0.0000000   0.0962250   0.1568381), wk =   0.0208333
        k(    9) = (   0.0000000   0.0962250   0.2352572), wk =   0.0208333
        k(   10) = (   0.0000000   0.0962250  -0.3136763), wk =   0.0104167
        k(   11) = (   0.0000000   0.1924501   0.0000000), wk =   0.0104167
        k(   12) = (   0.0000000   0.1924501   0.0784191), wk =   0.0208333
        k(   13) = (   0.0000000   0.1924501   0.1568381), wk =   0.0208333
        k(   14) = (   0.0000000   0.1924501   0.2352572), wk =   0.0208333
        k(   15) = (   0.0000000   0.1924501  -0.3136763), wk =   0.0104167
        k(   16) = (   0.0000000   0.2886751   0.0000000), wk =   0.0104167
        k(   17) = (   0.0000000   0.2886751   0.0784191), wk =   0.0208333
        k(   18) = (   0.0000000   0.2886751   0.1568381), wk =   0.0208333
        k(   19) = (   0.0000000   0.2886751   0.2352572), wk =   0.0208333
        k(   20) = (   0.0000000   0.2886751  -0.3136763), wk =   0.0104167
        k(   21) = (   0.0000000   0.3849002   0.0000000), wk =   0.0104167
        k(   22) = (   0.0000000   0.3849002   0.0784191), wk =   0.0208333
        k(   23) = (   0.0000000   0.3849002   0.1568381), wk =   0.0208333
        k(   24) = (   0.0000000   0.3849002   0.2352572), wk =   0.0208333
        k(   25) = (   0.0000000   0.3849002  -0.3136763), wk =   0.0104167
        k(   26) = (   0.0000000   0.4811252   0.0000000), wk =   0.0104167
        k(   27) = (   0.0000000   0.4811252   0.0784191), wk =   0.0208333
        k(   28) = (   0.0000000   0.4811252   0.1568381), wk =   0.0208333
        k(   29) = (   0.0000000   0.4811252   0.2352572), wk =   0.0208333
        k(   30) = (   0.0000000   0.4811252  -0.3136763), wk =   0.0104167
        k(   31) = (   0.0000000  -0.5773503   0.0000000), wk =   0.0052083
        k(   32) = (   0.0000000  -0.5773503   0.0784191), wk =   0.0104167
        k(   33) = (   0.0000000  -0.5773503   0.1568381), wk =   0.0104167
        k(   34) = (   0.0000000  -0.5773503   0.2352572), wk =   0.0104167
        k(   35) = (   0.0000000  -0.5773503  -0.3136763), wk =   0.0052083
        k(   36) = (   0.0833333   0.1443376   0.0000000), wk =   0.0104167
        k(   37) = (   0.0833333   0.1443376   0.0784191), wk =   0.0208333
        k(   38) = (   0.0833333   0.1443376   0.1568381), wk =   0.0208333
        k(   39) = (   0.0833333   0.1443376   0.2352572), wk =   0.0208333
        k(   40) = (   0.0833333   0.1443376  -0.3136763), wk =   0.0104167
        k(   41) = (   0.0833333   0.2405626   0.0000000), wk =   0.0208333
        k(   42) = (   0.0833333   0.2405626   0.0784191), wk =   0.0416667
        k(   43) = (   0.0833333   0.2405626   0.1568381), wk =   0.0416667
        k(   44) = (   0.0833333   0.2405626   0.2352572), wk =   0.0416667
        k(   45) = (   0.0833333   0.2405626  -0.3136763), wk =   0.0208333
        k(   46) = (   0.0833333   0.3367877   0.0000000), wk =   0.0208333
        k(   47) = (   0.0833333   0.3367877   0.0784191), wk =   0.0416667
        k(   48) = (   0.0833333   0.3367877   0.1568381), wk =   0.0416667
        k(   49) = (   0.0833333   0.3367877   0.2352572), wk =   0.0416667
        k(   50) = (   0.0833333   0.3367877  -0.3136763), wk =   0.0208333
        k(   51) = (   0.0833333   0.4330127   0.0000000), wk =   0.0208333
        k(   52) = (   0.0833333   0.4330127   0.0784191), wk =   0.0416667
        k(   53) = (   0.0833333   0.4330127   0.1568381), wk =   0.0416667
        k(   54) = (   0.0833333   0.4330127   0.2352572), wk =   0.0416667
        k(   55) = (   0.0833333   0.4330127  -0.3136763), wk =   0.0208333
        k(   56) = (   0.0833333   0.5292377   0.0000000), wk =   0.0208333
        k(   57) = (   0.0833333   0.5292377   0.0784191), wk =   0.0416667
        k(   58) = (   0.0833333   0.5292377   0.1568381), wk =   0.0416667
        k(   59) = (   0.0833333   0.5292377   0.2352572), wk =   0.0416667
        k(   60) = (   0.0833333   0.5292377  -0.3136763), wk =   0.0208333
        k(   61) = (   0.1666667   0.2886751   0.0000000), wk =   0.0104167
        k(   62) = (   0.1666667   0.2886751   0.0784191), wk =   0.0208333
        k(   63) = (   0.1666667   0.2886751   0.1568381), wk =   0.0208333
        k(   64) = (   0.1666667   0.2886751   0.2352572), wk =   0.0208333
        k(   65) = (   0.1666667   0.2886751  -0.3136763), wk =   0.0104167
        k(   66) = (   0.1666667   0.3849002   0.0000000), wk =   0.0208333
        k(   67) = (   0.1666667   0.3849002   0.0784191), wk =   0.0416667
        k(   68) = (   0.1666667   0.3849002   0.1568381), wk =   0.0416667
        k(   69) = (   0.1666667   0.3849002   0.2352572), wk =   0.0416667
        k(   70) = (   0.1666667   0.3849002  -0.3136763), wk =   0.0208333
        k(   71) = (   0.1666667   0.4811252   0.0000000), wk =   0.0208333
        k(   72) = (   0.1666667   0.4811252   0.0784191), wk =   0.0416667
        k(   73) = (   0.1666667   0.4811252   0.1568381), wk =   0.0416667
        k(   74) = (   0.1666667   0.4811252   0.2352572), wk =   0.0416667
        k(   75) = (   0.1666667   0.4811252  -0.3136763), wk =   0.0208333
        k(   76) = (   0.1666667   0.5773503   0.0000000), wk =   0.0104167
        k(   77) = (   0.1666667   0.5773503   0.0784191), wk =   0.0208333
        k(   78) = (   0.1666667   0.5773503   0.1568381), wk =   0.0208333
        k(   79) = (   0.1666667   0.5773503   0.2352572), wk =   0.0208333
        k(   80) = (   0.1666667   0.5773503  -0.3136763), wk =   0.0104167
        k(   81) = (   0.2500000   0.4330127   0.0000000), wk =   0.0104167
        k(   82) = (   0.2500000   0.4330127   0.0784191), wk =   0.0208333
        k(   83) = (   0.2500000   0.4330127   0.1568381), wk =   0.0208333
        k(   84) = (   0.2500000   0.4330127   0.2352572), wk =   0.0208333
        k(   85) = (   0.2500000   0.4330127  -0.3136763), wk =   0.0104167
        k(   86) = (   0.2500000   0.5292377   0.0000000), wk =   0.0208333
        k(   87) = (   0.2500000   0.5292377   0.0784191), wk =   0.0416667
        k(   88) = (   0.2500000   0.5292377   0.1568381), wk =   0.0416667
        k(   89) = (   0.2500000   0.5292377   0.2352572), wk =   0.0416667
        k(   90) = (   0.2500000   0.5292377  -0.3136763), wk =   0.0208333
        k(   91) = (   0.3333333   0.5773503   0.0000000), wk =   0.0034722
        k(   92) = (   0.3333333   0.5773503   0.0784191), wk =   0.0069444
        k(   93) = (   0.3333333   0.5773503   0.1568381), wk =   0.0069444
        k(   94) = (   0.3333333   0.5773503   0.2352572), wk =   0.0069444
        k(   95) = (   0.3333333   0.5773503  -0.3136763), wk =   0.0034722

     Dense  grid:    38995 G-vectors     FFT dimensions: (  45,  45,  64)

     Smooth grid:    16131 G-vectors     FFT dimensions: (  30,  30,  48)

     Estimated max dynamical RAM per process >      16.61 MB

     Estimated total dynamical RAM >     303.66 MB

     Check: negative core charge=   -0.000008

     Initial potential from superposition of free atoms

     starting charge      21.9956, renormalised to      22.0000
     Starting wfcs are   20 randomized atomic wfcs
     Checking if some PAW data can be deallocated... 

     total cpu time spent up to now is       30.3 secs

     Self-consistent Calculation

     iteration #  1     ecut=    50.00 Ry     beta= 0.70
     Davidson diagonalization with overlap
     ethr =  1.00E-02,  avg # of iterations =  3.1

     Threshold (ethr) on eigenvalues was too large:
     Diagonalizing with lowered threshold

     Davidson diagonalization with overlap
     c_bands:  2 eigenvalues not converged
     c_bands:  2 eigenvalues not converged
     c_bands:  1 eigenvalues not converged
     c_bands:  3 eigenvalues not converged
     ethr =  8.72E-06,  avg # of iterations = 16.1

     total cpu time spent up to now is       84.1 secs

     total energy              =    -306.85874831 Ry
     estimated scf accuracy    <       0.02117649 Ry

     iteration #  2     ecut=    50.00 Ry     beta= 0.70
     Davidson diagonalization with overlap
     ethr =  9.63E-05,  avg # of iterations =  4.3

     total cpu time spent up to now is      109.2 secs

     total energy              =    -306.86406653 Ry
     estimated scf accuracy    <       0.00309577 Ry

     iteration #  3     ecut=    50.00 Ry     beta= 0.70
     Davidson diagonalization with overlap
     ethr =  1.41E-05,  avg # of iterations =  5.1

     total cpu time spent up to now is      131.0 secs

     total energy              =    -306.86501336 Ry
     estimated scf accuracy    <       0.00009668 Ry

     iteration #  4     ecut=    50.00 Ry     beta= 0.70
     Davidson diagonalization with overlap
     c_bands:  1 eigenvalues not converged
     c_bands:  2 eigenvalues not converged
     c_bands:  1 eigenvalues not converged
     ethr =  4.39E-07,  avg # of iterations = 10.3

     total cpu time spent up to now is      153.8 secs

     total energy              =    -306.86520891 Ry
     estimated scf accuracy    <       0.00006234 Ry

     iteration #  5     ecut=    50.00 Ry     beta= 0.70
     Davidson diagonalization with overlap
     c_bands:  1 eigenvalues not converged
     ethr =  2.83E-07,  avg # of iterations =  5.9

     total cpu time spent up to now is      169.9 secs

     total energy              =    -306.86523105 Ry
     estimated scf accuracy    <       0.00001384 Ry

     iteration #  6     ecut=    50.00 Ry     beta= 0.70
     Davidson diagonalization with overlap
     ethr =  6.29E-08,  avg # of iterations =  5.5

     total cpu time spent up to now is      196.7 secs

     total energy              =    -306.86523671 Ry
     estimated scf accuracy    <       0.00000031 Ry

     iteration #  7     ecut=    50.00 Ry     beta= 0.70
     Davidson diagonalization with overlap
     ethr =  1.42E-09,  avg # of iterations = 12.9

     total cpu time spent up to now is      217.1 secs

     total energy              =    -306.86523769 Ry
     estimated scf accuracy    <       0.00000002 Ry

     iteration #  8     ecut=    50.00 Ry     beta= 0.70
     Davidson diagonalization with overlap
     ethr =  9.75E-11,  avg # of iterations = 10.3

     total cpu time spent up to now is      236.4 secs

     End of self-consistent calculation

          k = 0.0000 0.0000 0.0000 (  1997 PWs)   bands (ev):

   -40.1400 -40.0756 -19.2215 -18.8875 -18.8875 -18.8288 -18.8288 -18.8120
     3.7531   7.1494   9.3031  10.3616  10.3617  10.4719  10.7646

          k = 0.0000 0.0000 0.0784 (  1973 PWs)   bands (ev):

   -40.1375 -40.0781 -19.2062 -18.8853 -18.8853 -18.8310 -18.8310 -18.8279
     3.8543   6.9949   9.2739  10.3190  10.3191  10.4067  10.7091

          k = 0.0000 0.0000 0.1568 (  1996 PWs)   bands (ev):

   -40.1306 -40.0851 -19.1631 -18.8790 -18.8790 -18.8736 -18.8375 -18.8375
     4.1515   6.5466   9.2847  10.2249  10.2567  10.2568  10.5744

          k = 0.0000 0.0000 0.2353 (  2008 PWs)   bands (ev):

   -40.1202 -40.0956 -19.0980 -18.9412 -18.8696 -18.8696 -18.8471 -18.8471
     4.6235   5.9089   9.4275   9.9617  10.2448  10.2451  10.4222

          k = 0.0000 0.0000-0.3137 (  2014 PWs)   bands (ev):

   -40.1079 -40.1079 -19.0201 -19.0201 -18.8584 -18.8584 -18.8584 -18.8584
     5.2314   5.2314   9.6745   9.6746  10.3026  10.3026  10.3027

          k = 0.0000 0.0962 0.0000 (  2001 PWs)   bands (ev):

   -40.1366 -40.0743 -19.2127 -18.9057 -18.8936 -18.8480 -18.8315 -18.8157
     3.9044   7.2794   9.1791  10.0928  10.4708  10.6388  10.7015

          k = 0.0000 0.0962 0.0784 (  1991 PWs)   bands (ev):

   -40.1343 -40.0767 -19.1984 -18.9031 -18.8912 -18.8561 -18.8338 -18.8252
     4.0042   7.1243   9.1530  10.0890  10.4165  10.5139  10.6390

          k = 0.0000 0.0962 0.1568 (  1998 PWs)   bands (ev):

   -40.1276 -40.0835 -19.1578 -18.8961 -18.8895 -18.8846 -18.8416 -18.8407
     4.2972   6.6738   9.1783  10.0948  10.2433  10.3433  10.5387

          k = 0.0000 0.0962 0.2353 (  1998 PWs)   bands (ev):

   -40.1175 -40.0936 -19.0967 -18.9509 -18.8839 -18.8745 -18.8559 -18.8507
     4.7630   6.0367   9.3413   9.9287  10.1415  10.3288  10.3877

          k = 0.0000 0.0962-0.3137 (  2006 PWs)   bands (ev):

   -40.1056 -40.1056 -19.0240 -19.0240 -18.8702 -18.8702 -18.8626 -18.8626
     5.3641   5.3641   9.6108   9.6109  10.2417  10.2419  10.3865

          k = 0.0000 0.1925 0.0000 (  2004 PWs)   bands (ev):

   -40.1274 -40.0707 -19.1874 -18.9559 -18.9096 -18.8993 -18.8390 -18.8269
     4.3439   7.6281   8.8954   9.6821  10.4153  10.7873  10.8213

          k = 0.0000 0.1925 0.0784 (  1996 PWs)   bands (ev):

   -40.1253 -40.0729 -19.1763 -18.9518 -18.9088 -18.9069 -18.8417 -18.8332
     4.4389   7.4728   8.8810   9.7014  10.4066  10.5505  10.6386

          k = 0.0000 0.1925 0.1568 (  1994 PWs)   bands (ev):

   -40.1191 -40.0791 -19.1446 -18.9452 -18.9320 -18.8993 -18.8497 -18.8495
     4.7180   7.0190   8.9447   9.7581  10.1821  10.4149  10.5478

          k = 0.0000 0.1925 0.2353 (  1998 PWs)   bands (ev):

   -40.1100 -40.0883 -19.0972 -18.9858 -18.9185 -18.8879 -18.8718 -18.8609
     5.1627   6.3904   9.1475   9.7466   9.9656  10.2671  10.5415

          k = 0.0000 0.1925-0.3137 (  2010 PWs)   bands (ev):

   -40.0991 -40.0991 -19.0412 -19.0412 -18.8958 -18.8958 -18.8745 -18.8745
     5.7392   5.7392   9.4440   9.4440  10.0866  10.0867  10.6125

          k = 0.0000 0.2887 0.0000 (  2010 PWs)   bands (ev):

   -40.1142 -40.0664 -19.1495 -19.0252 -18.9672 -18.9308 -18.8500 -18.8457
     5.0260   8.0360   8.5902   9.2574  10.1958  10.4761  10.5771

          k = 0.0000 0.2887 0.0784 (  2016 PWs)   bands (ev):

   -40.1124 -40.0682 -19.1461 -19.0165 -18.9764 -18.9278 -18.8532 -18.8490
     5.1113   7.8853   8.6030   9.2881  10.1687  10.4163  10.5901

          k = 0.0000 0.2887 0.1568 (  2005 PWs)   bands (ev):

   -40.1073 -40.0734 -19.1342 -19.0123 -18.9814 -18.9190 -18.8620 -18.8606
     5.3620   7.4488   8.7221   9.3646  10.0234  10.3053  10.6394

          k = 0.0000 0.2887 0.2353 (  2014 PWs)   bands (ev):

   -40.0995 -40.0812 -19.1123 -19.0448 -18.9497 -18.9060 -18.8826 -18.8751
     5.7616   6.8693   8.9492   9.4022   9.8646  10.1360  10.7400

          k = 0.0000 0.2887-0.3137 (  2006 PWs)   bands (ev):

   -40.0904 -40.0904 -19.0810 -19.0810 -18.9137 -18.9137 -18.8906 -18.8906
     6.2803   6.2803   9.2212   9.2212   9.9392   9.9393  10.8924

          k = 0.0000 0.3849 0.0000 (  2002 PWs)   bands (ev):

   -40.1000 -40.0631 -19.1049 -19.0950 -19.0329 -18.9513 -18.8709 -18.8616
     5.8665   8.1974   8.3432   8.9210  10.2210  10.2289  10.3653

          k = 0.0000 0.3849 0.0784 (  2016 PWs)   bands (ev):

   -40.0986 -40.0645 -19.1315 -19.0641 -19.0373 -18.9480 -18.8709 -18.8650
     5.9338   8.0533   8.4139   8.9626  10.0765  10.3072  10.4145

          k = 0.0000 0.3849 0.1568 (  2015 PWs)   bands (ev):

   -40.0946 -40.0685 -19.1482 -19.0768 -19.0037 -18.9383 -18.8751 -18.8748
     6.1306   7.7184   8.5754   9.0509   9.9312  10.2568  10.5593

          k = 0.0000 0.3849 0.2353 (  2016 PWs)   bands (ev):

   -40.0886 -40.0745 -19.1486 -19.1072 -18.9579 -18.9238 -18.8901 -18.8895
     6.4423   7.2878   8.7977   9.1050   9.8438  10.0879  10.7888

          k = 0.0000 0.3849-0.3137 (  2020 PWs)   bands (ev):

   -40.0816 -40.0816 -19.1336 -19.1336 -18.9183 -18.9183 -18.9067 -18.9067
     6.8419   6.8419   9.0128   9.0128   9.9049   9.9049  11.0830

          k = 0.0000 0.4811 0.0000 (  2016 PWs)   bands (ev):

   -40.0883 -40.0620 -19.1464 -19.0799 -19.0637 -18.9660 -18.8981 -18.8703
     6.7203   8.0317   8.1876   8.6693  10.0581  10.2242  10.4341

          k = 0.0000 0.4811 0.0784 (  2018 PWs)   bands (ev):

   -40.0873 -40.0630 -19.1605 -19.0938 -19.0389 -18.9624 -18.8947 -18.8740
     6.7525   7.9346   8.2868   8.7005  10.0626  10.2861  10.3878

          k = 0.0000 0.4811 0.1568 (  2013 PWs)   bands (ev):

   -40.0844 -40.0659 -19.1792 -19.1223 -18.9947 -18.9521 -18.8910 -18.8844
     6.8503   7.7378   8.4798   8.7983  10.0486  10.2646  10.4683

          k = 0.0000 0.4811 0.2353 (  2026 PWs)   bands (ev):

   -40.0802 -40.0701 -19.1855 -19.1530 -18.9513 -18.9367 -18.9001 -18.8969
     7.0136   7.4885   8.7103   8.9090   9.9917  10.1132  10.7608

          k = 0.0000 0.4811-0.3137 (  2012 PWs)   bands (ev):

   -40.0751 -40.0751 -19.1760 -19.1760 -18.9184 -18.9184 -18.9171 -18.9171
     7.2341   7.2341   8.8925   8.8925   9.9947   9.9948  11.1442

          k = 0.0000-0.5774 0.0000 (  2008 PWs)   bands (ev):

   -40.0833 -40.0623 -19.1653 -19.0968 -19.0443 -18.9713 -18.9123 -18.8735
     7.2376   7.7937   8.1350   8.5538   9.9973  10.1750  10.5332

          k = 0.0000-0.5774 0.0784 (  2016 PWs)   bands (ev):

   -40.0825 -40.0631 -19.1765 -19.1095 -19.0254 -18.9676 -18.9071 -18.8773
     7.2181   7.7701   8.2449   8.5525  10.0510  10.2403  10.4622

          k = 0.0000-0.5774 0.1568 (  2010 PWs)   bands (ev):

   -40.0802 -40.0654 -19.1935 -19.1387 -18.9860 -18.9571 -18.8992 -18.8880
     7.2047   7.6768   8.5060   8.6058  10.1446  10.2826  10.4329

          k = 0.0000-0.5774 0.2353 (  2030 PWs)   bands (ev):

   -40.0768 -40.0688 -19.2004 -19.1697 -18.9464 -18.9414 -18.9040 -18.9004
     7.2490   7.5206   8.7444   8.7738  10.0989  10.1507  10.7432

          k = 0.0000-0.5774-0.3137 (  2032 PWs)   bands (ev):

   -40.0728 -40.0728 -19.1921 -19.1921 -18.9228 -18.9228 -18.9162 -18.9162
     7.3614   7.3614   8.8609   8.8609  10.0673  10.0674  11.1525

          k = 0.0833 0.1443 0.0000 (  1999 PWs)   bands (ev):

   -40.1304 -40.0718 -19.1956 -18.9364 -18.9126 -18.8761 -18.8390 -18.8232
     4.2001   7.5211   8.9803   9.7938  10.4959  10.6992  10.7700

          k = 0.0833 0.1443 0.0784 (  1996 PWs)   bands (ev):

   -40.1282 -40.0741 -19.1834 -18.9328 -18.9120 -18.8841 -18.8417 -18.8298
     4.2968   7.3653   8.9613   9.8089  10.5036  10.5196  10.5933

          k = 0.0833 0.1443 0.1568 (  1988 PWs)   bands (ev):

   -40.1218 -40.0804 -19.1484 -18.9259 -18.9223 -18.8942 -18.8489 -18.8456
     4.5808   6.9116   9.0125   9.8572  10.2084  10.4437  10.5015

          k = 0.0833 0.1443 0.2353 (  2006 PWs)   bands (ev):

   -40.1124 -40.0900 -19.0962 -18.9733 -18.9066 -18.8874 -18.8643 -18.8597
     5.0331   6.2785   9.2050   9.8226   9.9990  10.2964  10.4877

          k = 0.0833 0.1443-0.3137 (  2004 PWs)   bands (ev):

   -40.1012 -40.1012 -19.0344 -19.0344 -18.8889 -18.8889 -18.8709 -18.8709
     5.6187   5.6187   9.4983   9.4983  10.1273  10.1275  10.5433

          k = 0.0833 0.2406 0.0000 (  2010 PWs)   bands (ev):

   -40.1192 -40.0679 -19.1639 -18.9915 -18.9577 -18.9103 -18.8521 -18.8382
     4.7629   7.9187   8.7037   9.3831  10.2664  10.4719  10.7614

          k = 0.0833 0.2406 0.0784 (  2011 PWs)   bands (ev):

   -40.1172 -40.0699 -19.1567 -18.9856 -18.9617 -18.9135 -18.8552 -18.8415
     4.8526   7.7647   8.7015   9.4108  10.2757  10.3928  10.6866

          k = 0.0833 0.2406 0.1568 (  2008 PWs)   bands (ev):

   -40.1117 -40.0754 -19.1356 -18.9863 -18.9625 -18.9143 -18.8640 -18.8527
     5.1161   7.3127   8.7986   9.4861  10.0972  10.3115  10.6368

          k = 0.0833 0.2406 0.2353 (  2012 PWs)   bands (ev):

   -40.1034 -40.0838 -19.1029 -19.0207 -18.9377 -18.9076 -18.8772 -18.8704
     5.5364   6.7035   9.0221   9.5302   9.8827  10.1517  10.6884

          k = 0.0833 0.2406-0.3137 (  2010 PWs)   bands (ev):

   -40.0936 -40.0936 -19.0626 -19.0626 -18.9114 -18.9114 -18.8844 -18.8844
     6.0827   6.0827   9.3127   9.3128   9.9573   9.9576  10.7938

          k = 0.0833 0.3368 0.0000 (  2015 PWs)   bands (ev):

   -40.1054 -40.0641 -19.1224 -19.0597 -19.0125 -18.9419 -18.8660 -18.8606
     5.5315   8.2385   8.4507   9.0066  10.1622  10.2160  10.5206

          k = 0.0833 0.3368 0.0784 (  2012 PWs)   bands (ev):

   -40.1038 -40.0657 -19.1293 -19.0459 -19.0160 -18.9417 -18.8708 -18.8594
     5.6081   8.0873   8.4948   9.0443  10.0726  10.2817  10.5035

          k = 0.0833 0.3368 0.1568 (  2014 PWs)   bands (ev):

   -40.0994 -40.0702 -19.1348 -19.0515 -18.9955 -18.9370 -18.8814 -18.8633
     5.8329   7.6880   8.6435   9.1343   9.9303  10.2309  10.5735

          k = 0.0833 0.3368 0.2353 (  2015 PWs)   bands (ev):

   -40.0927 -40.0769 -19.1280 -19.0801 -18.9574 -18.9262 -18.8954 -18.8769
     6.1904   7.1747   8.8692   9.2067   9.7963  10.0387  10.7630

          k = 0.0833 0.3368-0.3137 (  2010 PWs)   bands (ev):

   -40.0848 -40.0848 -19.1084 -19.1084 -18.9275 -18.9275 -18.8961 -18.8961
     6.6525   6.6525   9.1049   9.1049   9.8406   9.8406  10.9996

          k = 0.0833 0.4330 0.0000 (  2018 PWs)   bands (ev):

   -40.0922 -40.0621 -19.1201 -19.0783 -19.0603 -18.9663 -18.8881 -18.8779
     6.3969   8.2119   8.2693   8.7403  10.0479  10.2887  10.3315

          k = 0.0833 0.4330 0.0784 (  2011 PWs)   bands (ev):

   -40.0911 -40.0633 -19.1392 -19.0784 -19.0428 -18.9637 -18.8894 -18.8772
     6.4494   8.0778   8.3643   8.7916   9.9963  10.2719  10.3754

          k = 0.0833 0.4330 0.1568 (  2019 PWs)   bands (ev):

   -40.0878 -40.0665 -19.1592 -19.1026 -19.0011 -18.9535 -18.8984 -18.8760
     6.6032   7.8228   8.5333   8.9047   9.8925  10.1645  10.5282

          k = 0.0833 0.4330 0.2353 (  2018 PWs)   bands (ev):

   -40.0829 -40.0714 -19.1647 -19.1316 -18.9647 -18.9352 -18.9114 -18.8828
     6.8460   7.4975   8.7564   8.9988   9.8054   9.9782  10.7788

          k = 0.0833 0.4330-0.3137 (  2028 PWs)   bands (ev):

   -40.0772 -40.0772 -19.1545 -19.1545 -18.9399 -18.9399 -18.9008 -18.9008
     7.1557   7.1557   8.9540   8.9540   9.8225   9.8225  11.1039

          k = 0.0833 0.5292 0.0000 (  2016 PWs)   bands (ev):

   -40.0833 -40.0622 -19.1551 -19.0880 -19.0447 -18.9798 -18.9120 -18.8849
     7.1586   7.9580   8.1765   8.5529   9.9817  10.1334  10.5285

          k = 0.0833 0.5292 0.0784 (  2016 PWs)   bands (ev):

   -40.0825 -40.0630 -19.1662 -19.1012 -19.0273 -18.9742 -18.9091 -18.8861
     7.1642   7.9060   8.2779   8.5759   9.9963  10.1403  10.5155

          k = 0.0833 0.5292 0.1568 (  2019 PWs)   bands (ev):

   -40.0802 -40.0653 -19.1834 -19.1302 -18.9964 -18.9561 -18.9120 -18.8854
     7.1973   7.7799   8.4961   8.6820   9.9959  10.0778  10.5881

          k = 0.0833 0.5292 0.2353 (  2021 PWs)   bands (ev):

   -40.0768 -40.0687 -19.1904 -19.1607 -18.9701 -18.9314 -18.9228 -18.8875
     7.2825   7.6036   8.7345   8.8560   9.8910   9.9597  10.8307

          k = 0.0833 0.5292-0.3137 (  2024 PWs)   bands (ev):

   -40.0728 -40.0728 -19.1825 -19.1825 -18.9476 -18.9476 -18.9012 -18.9012
     7.4242   7.4242   8.9019   8.9019   9.8526   9.8526  11.1807

          k = 0.1667 0.2887 0.0000 (  2023 PWs)   bands (ev):

   -40.1073 -40.0646 -19.1285 -19.0296 -19.0220 -18.9306 -18.8757 -18.8571
     5.4176   8.2741   8.5051   9.0116  10.1526  10.1720  10.6090

          k = 0.1667 0.2887 0.0784 (  2021 PWs)   bands (ev):

   -40.1057 -40.0662 -19.1303 -19.0261 -19.0163 -18.9358 -18.8787 -18.8564
     5.4974   8.1181   8.5369   9.0452  10.1217  10.2019  10.5544

          k = 0.1667 0.2887 0.1568 (  2023 PWs)   bands (ev):

   -40.1011 -40.0708 -19.1294 -19.0416 -18.9852 -18.9415 -18.8869 -18.8598
     5.7318   7.6888   8.6798   9.1380   9.9723  10.1926  10.5466

          k = 0.1667 0.2887 0.2353 (  2022 PWs)   bands (ev):

   -40.0942 -40.0778 -19.1183 -19.0680 -18.9508 -18.9384 -18.8962 -18.8730
     6.1053   7.1412   8.9075   9.2354   9.7894   9.9980  10.7202

          k = 0.1667 0.2887-0.3137 (  2004 PWs)   bands (ev):

   -40.0860 -40.0860 -19.0963 -19.0963 -18.9336 -18.9336 -18.8923 -18.8923
     6.5900   6.5900   9.1509   9.1509   9.7976   9.7977  10.9433

          k = 0.1667 0.3849 0.0000 (  2021 PWs)   bands (ev):

   -40.0944 -40.0623 -19.0862 -19.0854 -19.0564 -18.9632 -18.8982 -18.8827
     6.2302   8.3555   8.4313   8.7113   9.9597  10.2387  10.3677

          k = 0.1667 0.3849 0.0784 (  2022 PWs)   bands (ev):

   -40.0932 -40.0635 -19.1159 -19.0765 -19.0325 -18.9678 -18.9025 -18.8770
     6.2937   8.2355   8.4911   8.7565   9.9234  10.2627  10.3173

          k = 0.1667 0.3849 0.1568 (  2026 PWs)   bands (ev):

   -40.0897 -40.0670 -19.1364 -19.0905 -18.9942 -18.9687 -18.9110 -18.8713
     6.4792   7.9457   8.6360   8.8653   9.8274  10.0842  10.4428

          k = 0.1667 0.3849 0.2353 (  2020 PWs)   bands (ev):

   -40.0845 -40.0722 -19.1420 -19.1128 -18.9733 -18.9546 -18.9129 -18.8762
     6.7721   7.5571   8.8378   8.9909   9.6992   9.8415  10.6757

          k = 0.1667 0.3849-0.3137 (  2018 PWs)   bands (ev):

   -40.0784 -40.0784 -19.1327 -19.1327 -18.9595 -18.9595 -18.8936 -18.8936
     7.1455   7.1455   9.0061   9.0061   9.6683   9.6683  10.9842

          k = 0.1667 0.4811 0.0000 (  2023 PWs)   bands (ev):

   -40.0834 -40.0622 -19.1285 -19.0727 -19.0453 -18.9945 -18.9134 -18.9114
     7.0588   8.2578   8.2693   8.5426   9.8760  10.1175  10.4963

          k = 0.1667 0.4811 0.0784 (  2025 PWs)   bands (ev):

   -40.0826 -40.0630 -19.1390 -19.0894 -19.0275 -18.9891 -18.9224 -18.8983
     7.0944   8.1567   8.3603   8.6142   9.8478  10.0545  10.5147

          k = 0.1667 0.4811 0.1568 (  2021 PWs)   bands (ev):

   -40.0803 -40.0653 -19.1567 -19.1149 -19.0134 -18.9644 -18.9310 -18.8846
     7.1990   7.9987   8.5219   8.7745   9.7579   9.8802  10.6025

          k = 0.1667 0.4811 0.2353 (  2018 PWs)   bands (ev):

   -40.0768 -40.0687 -19.1655 -19.1413 -18.9986 -18.9620 -18.9158 -18.8810
     7.3641   7.7954   8.7499   8.9428   9.6284   9.6489  10.7898

          k = 0.1667 0.4811-0.3137 (  2016 PWs)   bands (ev):

   -40.0728 -40.0728 -19.1600 -19.1600 -18.9799 -18.9799 -18.8920 -18.8920
     7.5724   7.5724   8.9572   8.9572   9.5343   9.5343  11.0739

          k = 0.1667 0.5774 0.0000 (  2007 PWs)   bands (ev):

   -40.0784 -40.0630 -19.1440 -19.0770 -19.0245 -19.0079 -18.9276 -18.9186
     7.5647   8.0382   8.2420   8.4477   9.9189   9.9522  10.6244

          k = 0.1667 0.5774 0.0784 (  2023 PWs)   bands (ev):

   -40.0779 -40.0636 -19.1524 -19.0908 -19.0299 -18.9845 -18.9343 -18.9077
     7.5575   8.0249   8.3327   8.4807   9.8819   9.9166  10.6373

          k = 0.1667 0.5774 0.1568 (  2025 PWs)   bands (ev):

   -40.0762 -40.0653 -19.1676 -19.1208 -19.0240 -18.9476 -18.9474 -18.8915
     7.5653   7.9632   8.5617   8.6021   9.7741   9.7843  10.7150

          k = 0.1667 0.5774 0.2353 (  2023 PWs)   bands (ev):

   -40.0737 -40.0678 -19.1757 -19.1504 -19.0083 -18.9662 -18.9136 -18.8839
     7.6206   7.8504   8.8092   8.8432   9.5655   9.6013  10.8935

          k = 0.1667 0.5774-0.3137 (  2030 PWs)   bands (ev):

   -40.0707 -40.0707 -19.1702 -19.1702 -18.9876 -18.9876 -18.8912 -18.8912
     7.7233   7.7233   8.9871   8.9871   9.4413   9.4413  11.1626

          k = 0.2500 0.4330 0.0000 (  2027 PWs)   bands (ev):

   -40.0834 -40.0621 -19.1058 -19.0759 -19.0457 -18.9939 -18.9343 -18.9111
     7.0223   8.3220   8.4524   8.4932   9.8005  10.1273  10.4630

          k = 0.2500 0.4330 0.0784 (  2029 PWs)   bands (ev):

   -40.0826 -40.0629 -19.1078 -19.1041 -19.0134 -19.0041 -18.9366 -18.9004
     7.0694   8.2597   8.4895   8.5690   9.7841  10.0230  10.4733

          k = 0.2500 0.4330 0.1568 (  2026 PWs)   bands (ev):

   -40.0803 -40.0653 -19.1325 -19.1170 -19.0152 -18.9803 -18.9361 -18.8846
     7.2053   8.1210   8.5991   8.7269   9.7171   9.7799  10.5305

          k = 0.2500 0.4330 0.2353 (  2014 PWs)   bands (ev):

   -40.0768 -40.0687 -19.1469 -19.1332 -19.0113 -18.9813 -18.9129 -18.8793
     7.4133   7.9152   8.7690   8.9030   9.5227   9.5807  10.6898

          k = 0.2500 0.4330-0.3137 (  2008 PWs)   bands (ev):

   -40.0728 -40.0728 -19.1460 -19.1460 -18.9970 -18.9970 -18.8892 -18.8892
     7.6641   7.6641   8.9365   8.9365   9.4409   9.4409  10.9747

          k = 0.2500 0.5292 0.0000 (  2027 PWs)   bands (ev):

   -40.0750 -40.0641 -19.1209 -19.0647 -19.0286 -19.0094 -18.9570 -18.9403
     7.7166   8.2683   8.3246   8.3871   9.7743   9.9018  10.6870

          k = 0.2500 0.5292 0.0784 (  2028 PWs)   bands (ev):

   -40.0746 -40.0645 -19.1240 -19.0836 -19.0441 -18.9841 -18.9613 -18.9236
     7.7451   8.2421   8.3557   8.4760   9.7337   9.8067  10.6911

          k = 0.2500 0.5292 0.1568 (  2022 PWs)   bands (ev):

   -40.0734 -40.0657 -19.1363 -19.1108 -19.0537 -18.9832 -18.9364 -18.8993
     7.8242   8.1988   8.4788   8.6588   9.5565   9.6196  10.7266

          k = 0.2500 0.5292 0.2353 (  2019 PWs)   bands (ev):

   -40.0716 -40.0675 -19.1487 -19.1349 -19.0437 -19.0019 -18.9047 -18.8849
     7.9343   8.1390   8.6825   8.8960   9.2565   9.4161  10.8407

          k = 0.2500 0.5292-0.3137 (  2020 PWs)   bands (ev):

   -40.0695 -40.0695 -19.1489 -19.1489 -19.0239 -19.0239 -18.8864 -18.8864
     8.0481   8.0481   8.9470   8.9470   9.1658   9.1658  11.0701

          k = 0.3333 0.5774 0.0000 (  2037 PWs)   bands (ev):

   -40.0684 -40.0684 -19.1116 -19.0500 -19.0500 -18.9827 -18.9736 -18.9736
     8.1674   8.1674   8.2701   8.3614   9.7707   9.7707  10.7816

          k = 0.3333 0.5774 0.0784 (  2013 PWs)   bands (ev):

   -40.0684 -40.0684 -19.1066 -19.0714 -19.0714 -18.9876 -18.9518 -18.9518
     8.2135   8.2135   8.2893   8.3796   9.6930   9.6930  10.7804

          k = 0.3333 0.5774 0.1568 (  2016 PWs)   bands (ev):

   -40.0684 -40.0684 -19.1047 -19.1047 -19.0928 -19.0018 -18.9179 -18.9179
     8.3396   8.3442   8.3442   8.4215   9.4921   9.4921  10.7974

          k = 0.3333 0.5774 0.2353 (  2019 PWs)   bands (ev):

   -40.0684 -40.0684 -19.1287 -19.1287 -19.0721 -19.0228 -18.8933 -18.8933
     8.4024   8.4546   8.5328   8.5328   9.2413   9.2414  10.8840

          k = 0.3333 0.5774-0.3137 (  2034 PWs)   bands (ev):

   -40.0684 -40.0684 -19.1373 -19.1373 -19.0475 -19.0475 -18.8845 -18.8845
     8.4487   8.4487   8.6645   8.6645   9.0857   9.0857  11.0882

     the Fermi energy is     8.8250 ev

!    total energy              =    -306.86523772 Ry
     total all-electron energy =     -3050.006009 Ry
     estimated scf accuracy    <          7.3E-09 Ry
     smearing contrib. (-TS)   =      -0.00103888 Ry
     internal energy E=F+TS    =    -306.86419885 Ry

     The total energy is F=E-TS. E is the sum of the following terms:
     one-electron contribution =     -74.38423688 Ry
     hartree contribution      =      42.27628935 Ry
     xc contribution           =     -34.52921411 Ry
     ewald contribution        =    -126.46581261 Ry
     one-center paw contrib.   =    -113.76122460 Ry

     convergence has been achieved in   8 iterations

     Forces acting on atoms (cartesian axes, Ry/au):

     atom    1 type  1   force =    -0.00000000   -0.00000000    0.00000000
     atom    2 type  1   force =     0.00000000   -0.00000000    0.00000000
     The non-local contrib.  to forces
     atom    1 type  1   force =    -0.00000000   -0.00000000    0.00000000
     atom    2 type  1   force =     0.00000000    0.00000000    0.00000000
     The ionic contribution  to forces
     atom    1 type  1   force =     0.00000000   -0.00000000    0.00000000
     atom    2 type  1   force =    -0.00000000    0.00000000    0.00000000
     The local contribution  to forces
     atom    1 type  1   force =    -0.00000000    0.00000000    0.00000000
     atom    2 type  1   force =    -0.00000000    0.00000000    0.00000000
     The core correction contribution to forces
     atom    1 type  1   force =    -0.00000000   -0.00000000    0.00000000
     atom    2 type  1   force =     0.00000000   -0.00000000    0.00000000
     The Hubbard contrib.    to forces
     atom    1 type  1   force =     0.00000000    0.00000000    0.00000000
     atom    2 type  1   force =     0.00000000    0.00000000    0.00000000
     The SCF correction term to forces
     atom    1 type  1   force =     0.00000000    0.00000000   -0.00000000
     atom    2 type  1   force =    -0.00000000    0.00000000   -0.00000000

     Total force =     0.000000     Total SCF correction =     0.000000


     Computing stress (Cartesian axis) and pressure

          total   stress  (Ry/bohr**3)                   (kbar)     P=      -57.33
  -0.00034995   0.00000000   0.00000000          -51.48        0.00        0.00
   0.00000000  -0.00034995   0.00000000            0.00      -51.48        0.00
   0.00000000   0.00000000  -0.00046917            0.00        0.00      -69.02


     BFGS Geometry Optimization
     Energy error            =      0.0E+00 Ry
     Gradient error          =      1.6E-27 Ry/Bohr
     Cell gradient error     =      6.9E+01 kbar

     number of scf cycles    =   1
     number of bfgs steps    =   0

     enthalpy           new  =    -306.8652377215 Ry

     new trust radius        =       0.0430978643 bohr
     new conv_thr            =       0.0000000100 Ry

     new unit-cell volume =    327.75502 a.u.^3 (    48.56828 Ang^3 )
     density =      3.04946 g/cm^3

CELL_PARAMETERS (alat=  6.25310370)
   0.991251365   0.000000000   0.000000000
  -0.495625682   0.858448863   0.000000000
   0.000000000   0.000000000   1.575303464

ATOMIC_POSITIONS (crystal)
Sc           -0.0000000000       -0.0000000000        0.0000000000
Sc            0.6666666667        0.3333333333        0.5000000000



     Writing config-only to output data dir sc_vcrelax.out/scandium.save/
     NEW-OLD atomic charge density approx. for the potential

     Check: negative core charge=   -0.000009
     extrapolated charge   21.34434, renormalised to   22.00000

     total cpu time spent up to now is      257.8 secs

     Self-consistent Calculation

     iteration #  1     ecut=    50.00 Ry     beta= 0.70
     Davidson diagonalization with overlap
     c_bands:  1 eigenvalues not converged
     c_bands:  1 eigenvalues not converged
     c_bands:  1 eigenvalues not converged
     c_bands:  1 eigenvalues not converged
     ethr =  1.00E-06,  avg # of iterations = 18.1

     total cpu time spent up to now is      299.3 secs

     total energy              =    -306.74601352 Ry
     estimated scf accuracy    <       0.08858130 Ry

     iteration #  2     ecut=    50.00 Ry     beta= 0.70
     Davidson diagonalization with overlap
     ethr =  4.03E-04,  avg # of iterations =  7.3

     total cpu time spent up to now is      322.7 secs

     total energy              =    -306.87149388 Ry
     estimated scf accuracy    <       0.15991667 Ry

     iteration #  3     ecut=    50.00 Ry     beta= 0.70
     Davidson diagonalization with overlap
     ethr =  4.03E-04,  avg # of iterations =  1.3

     total cpu time spent up to now is      356.9 secs

     total energy              =    -306.86887694 Ry
     estimated scf accuracy    <       0.04624205 Ry

     iteration #  4     ecut=    50.00 Ry     beta= 0.70
     Davidson diagonalization with overlap
     ethr =  2.10E-04,  avg # of iterations =  3.0

     total cpu time spent up to now is      377.4 secs

     total energy              =    -306.86843045 Ry
     estimated scf accuracy    <       0.02064763 Ry

     iteration #  5     ecut=    50.00 Ry     beta= 0.70
     Davidson diagonalization with overlap
     ethr =  9.39E-05,  avg # of iterations =  2.7

     total cpu time spent up to now is      404.1 secs

     total energy              =    -306.87208983 Ry
     estimated scf accuracy    <       0.00988061 Ry

     iteration #  6     ecut=    50.00 Ry     beta= 0.70
     Davidson diagonalization with overlap
     ethr =  4.49E-05,  avg # of iterations =  1.7

     total cpu time spent up to now is      434.3 secs

     total energy              =    -306.87493845 Ry
     estimated scf accuracy    <       0.01268600 Ry

     iteration #  7     ecut=    50.00 Ry     beta= 0.70
     Davidson diagonalization with overlap
     ethr =  4.49E-05,  avg # of iterations =  1.0

     total cpu time spent up to now is      462.3 secs

     total energy              =    -306.86218113 Ry
     estimated scf accuracy    <       0.01690252 Ry

     iteration #  8     ecut=    50.00 Ry     beta= 0.70
     Davidson diagonalization with overlap
     ethr =  4.49E-05,  avg # of iterations =  6.0

     total cpu time spent up to now is      481.2 secs

     total energy              =    -306.86953990 Ry
     estimated scf accuracy    <       0.00215638 Ry

     iteration #  9     ecut=    50.00 Ry     beta= 0.70
     Davidson diagonalization with overlap
     ethr =  9.80E-06,  avg # of iterations =  4.7

     total cpu time spent up to now is      503.4 secs

     total energy              =    -306.86870667 Ry
     estimated scf accuracy    <       0.00267441 Ry

     iteration # 10     ecut=    50.00 Ry     beta= 0.70
     Davidson diagonalization with overlap
     ethr =  9.80E-06,  avg # of iterations =  1.3

     total cpu time spent up to now is      524.5 secs

     total energy              =    -306.86945613 Ry
     estimated scf accuracy    <       0.00085639 Ry

     iteration # 11     ecut=    50.00 Ry     beta= 0.70
     Davidson diagonalization with overlap
     ethr =  3.89E-06,  avg # of iterations =  1.9

     total cpu time spent up to now is      542.8 secs

     total energy              =    -306.86966001 Ry
     estimated scf accuracy    <       0.00200787 Ry

     iteration # 12     ecut=    50.00 Ry     beta= 0.70
     Davidson diagonalization with overlap
     ethr =  3.89E-06,  avg # of iterations =  1.1

     total cpu time spent up to now is      573.0 secs

     total energy              =    -306.86837057 Ry
     estimated scf accuracy    <       0.00233817 Ry

     iteration # 13     ecut=    50.00 Ry     beta= 0.70
     Davidson diagonalization with overlap
     ethr =  3.89E-06,  avg # of iterations =  4.1

     total cpu time spent up to now is      610.8 secs

     total energy              =    -306.86858731 Ry
     estimated scf accuracy    <       0.00011728 Ry

     iteration # 14     ecut=    50.00 Ry     beta= 0.70
     Davidson diagonalization with overlap
     ethr =  5.33E-07,  avg # of iterations =  8.2

     total cpu time spent up to now is      651.5 secs

     total energy              =    -306.86879433 Ry
     estimated scf accuracy    <       0.00018927 Ry

     iteration # 15     ecut=    50.00 Ry     beta= 0.70
     Davidson diagonalization with overlap
     ethr =  5.33E-07,  avg # of iterations =  1.1

     total cpu time spent up to now is      698.1 secs

     total energy              =    -306.86868973 Ry
     estimated scf accuracy    <       0.00021698 Ry

     iteration # 16     ecut=    50.00 Ry     beta= 0.70
     Davidson diagonalization with overlap
     ethr =  5.33E-07,  avg # of iterations =  2.3

     total cpu time spent up to now is      750.6 secs

     total energy              =    -306.86869562 Ry
     estimated scf accuracy    <       0.00004229 Ry

     iteration # 17     ecut=    50.00 Ry     beta= 0.70
     Davidson diagonalization with overlap
     ethr =  1.92E-07,  avg # of iterations =  4.2

     total cpu time spent up to now is      800.4 secs

     total energy              =    -306.86870204 Ry
     estimated scf accuracy    <       0.00000788 Ry

     iteration # 18     ecut=    50.00 Ry     beta= 0.70
     Davidson diagonalization with overlap
     ethr =  3.58E-08,  avg # of iterations =  8.1

     total cpu time spent up to now is      855.3 secs

     total energy              =    -306.86870992 Ry
     estimated scf accuracy    <       0.00003207 Ry

     iteration # 19     ecut=    50.00 Ry     beta= 0.70
     Davidson diagonalization with overlap
     ethr =  3.58E-08,  avg # of iterations =  2.3

     total cpu time spent up to now is      907.5 secs

     total energy              =    -306.86869994 Ry
     estimated scf accuracy    <       0.00001391 Ry

     iteration # 20     ecut=    50.00 Ry     beta= 0.70
     Davidson diagonalization with overlap
     ethr =  3.58E-08,  avg # of iterations =  6.3

     total cpu time spent up to now is      964.3 secs

     total energy              =    -306.86870559 Ry
     estimated scf accuracy    <       0.00000310 Ry

     iteration # 21     ecut=    50.00 Ry     beta= 0.70
     Davidson diagonalization with overlap
     ethr =  1.41E-08,  avg # of iterations =  3.8

     total cpu time spent up to now is     1012.4 secs

     total energy              =    -306.86870674 Ry
     estimated scf accuracy    <       0.00000058 Ry

     iteration # 22     ecut=    50.00 Ry     beta= 0.70
     Davidson diagonalization with overlap
     ethr =  2.64E-09,  avg # of iterations =  7.7

     total cpu time spent up to now is     1055.1 secs

     total energy              =    -306.86870627 Ry
     estimated scf accuracy    <       0.00000431 Ry

     iteration # 23     ecut=    50.00 Ry     beta= 0.70
     Davidson diagonalization with overlap
     ethr =  2.64E-09,  avg # of iterations =  5.1

     total cpu time spent up to now is     1096.2 secs

     total energy              =    -306.86870616 Ry
     estimated scf accuracy    <       0.00000078 Ry

     iteration # 24     ecut=    50.00 Ry     beta= 0.70
     Davidson diagonalization with overlap
     ethr =  2.64E-09,  avg # of iterations =  4.0

     total cpu time spent up to now is     1127.1 secs

     total energy              =    -306.86870630 Ry
     estimated scf accuracy    <       0.00000002 Ry

     iteration # 25     ecut=    50.00 Ry     beta= 0.70
     Davidson diagonalization with overlap
     ethr =  1.11E-10,  avg # of iterations =  8.8

     total cpu time spent up to now is     1152.5 secs

     End of self-consistent calculation

          k = 0.0000 0.0000 0.0000 (  1997 PWs)   bands (ev):

   -39.7341 -39.6603 -18.8426 -18.4719 -18.4719 -18.4065 -18.4065 -18.3874
     4.0317   7.4508   9.7145  10.7286  10.7287  10.8634  11.1538

          k = 0.0000-0.0000 0.0793 (  1973 PWs)   bands (ev):

   -39.7313 -39.6631 -18.8256 -18.4694 -18.4694 -18.4090 -18.4090 -18.4050
     4.1362   7.3055   9.6714  10.6830  10.6830  10.7954  11.0947

          k = 0.0000-0.0000 0.1587 (  1996 PWs)   bands (ev):

   -39.7234 -39.6712 -18.7778 -18.4624 -18.4624 -18.4560 -18.4162 -18.4162
     4.4422   6.8716   9.6568  10.6048  10.6166  10.6166  10.9517

          k = 0.0000-0.0000 0.2380 (  2008 PWs)   bands (ev):

   -39.7114 -39.6832 -18.7055 -18.5313 -18.4519 -18.4519 -18.4269 -18.4269
     4.9272   6.2360   9.7864  10.3309  10.6036  10.6039  10.7907

          k = 0.0000 0.0000-0.3174 (  2014 PWs)   bands (ev):

   -39.6973 -39.6973 -18.6190 -18.6190 -18.4394 -18.4394 -18.4394 -18.4394
     5.5489   5.5489  10.0346  10.0346  10.6645  10.6645  10.6645

          k = 0.0000 0.0971-0.0000 (  2001 PWs)   bands (ev):

   -39.7304 -39.6588 -18.8328 -18.4919 -18.4786 -18.4276 -18.4094 -18.3915
     4.1868   7.5834   9.5791  10.4517  10.8418  11.0286  11.0936

          k = 0.0000 0.0971 0.0793 (  1991 PWs)   bands (ev):

   -39.7277 -39.6615 -18.8169 -18.4890 -18.4760 -18.4366 -18.4120 -18.4021
     4.2896   7.4378   9.5384  10.4471  10.7836  10.9006  11.0238

          k = 0.0000 0.0971 0.1587 (  1998 PWs)   bands (ev):

   -39.7199 -39.6693 -18.7719 -18.4812 -18.4738 -18.4686 -18.4203 -18.4196
     4.5912   7.0019   9.5391  10.4523  10.6181  10.7058  10.9179

          k = 0.0000 0.0971 0.2380 (  1998 PWs)   bands (ev):

   -39.7084 -39.6810 -18.7041 -18.5421 -18.4675 -18.4573 -18.4363 -18.4308
     5.0696   6.3664   9.6911  10.2918  10.5000  10.6902  10.7588

          k = 0.0000 0.0971-0.3174 (  2006 PWs)   bands (ev):

   -39.6947 -39.6947 -18.6234 -18.6234 -18.4523 -18.4523 -18.4441 -18.4441
     5.6841   5.6841   9.9636   9.9636  10.6054  10.6055  10.7512

          k = 0.0000 0.1941-0.0000 (  2004 PWs)   bands (ev):

   -39.7199 -39.6549 -18.8048 -18.5471 -18.4963 -18.4839 -18.4174 -18.4040
     4.6364   7.9376   9.2687  10.0235  10.7954  11.1700  11.1978

          k = 0.0000 0.1941 0.0793 (  1996 PWs)   bands (ev):

   -39.7175 -39.6574 -18.7924 -18.5424 -18.4946 -18.4933 -18.4205 -18.4108
     4.7340   7.7936   9.2394  10.0434  10.7864  10.9325  11.0099

          k = 0.0000 0.1941 0.1587 (  1994 PWs)   bands (ev):

   -39.7105 -39.6644 -18.7573 -18.5354 -18.5205 -18.4848 -18.4291 -18.4289
     5.0206   7.3544   9.2823  10.1014  10.5523  10.7964  10.9155

          k = 0.0000 0.1941 0.2380 (  1998 PWs)   bands (ev):

   -39.6999 -39.6750 -18.7048 -18.5810 -18.5051 -18.4720 -18.4532 -18.4419
     5.4764   6.7257   9.4800  10.0901  10.3285  10.6410  10.9094

          k = 0.0000 0.1941-0.3174 (  2010 PWs)   bands (ev):

   -39.6875 -39.6875 -18.6426 -18.6426 -18.4799 -18.4799 -18.4571 -18.4571
     6.0650   6.0650   9.7822   9.7822  10.4514  10.4514  10.9847

          k = 0.0000 0.2912-0.0000 (  2010 PWs)   bands (ev):

   -39.7050 -39.6501 -18.7627 -18.6231 -18.5583 -18.5196 -18.4293 -18.4250
     5.3320   8.3465   8.9342   9.5868  10.5737  10.8542  10.9436

          k = 0.0000 0.2912 0.0793 (  2016 PWs)   bands (ev):

   -39.7030 -39.6522 -18.7589 -18.6135 -18.5686 -18.5162 -18.4328 -18.4284
     5.4191   8.2105   8.9325   9.6186  10.5415  10.7972  10.9571

          k = 0.0000 0.2912 0.1587 (  2005 PWs)   bands (ev):

   -39.6970 -39.6582 -18.7457 -18.6093 -18.5742 -18.5064 -18.4427 -18.4409
     5.6751   7.7865   9.0396   9.6978  10.3871  10.6871  11.0088

          k = 0.0000 0.2912 0.2380 (  2014 PWs)   bands (ev):

   -39.6881 -39.6671 -18.7213 -18.6458 -18.5392 -18.4919 -18.4649 -18.4574
     6.0823   7.2057   9.2697   9.7366  10.2239  10.5097  11.1141

          k = 0.0000 0.2912-0.3174 (  2006 PWs)   bands (ev):

   -39.6776 -39.6776 -18.6864 -18.6864 -18.4993 -18.4993 -18.4747 -18.4747
     6.6096   6.6096   9.5501   9.5501  10.3028  10.3028  11.2741

          k = 0.0000 0.3883-0.0000 (  2002 PWs)   bands (ev):

   -39.6889 -39.6465 -18.7133 -18.6998 -18.6301 -18.5421 -18.4531 -18.4418
     6.1843   8.4966   8.6619   9.2520  10.6056  10.6068  10.7235

          k = 0.0000 0.3883 0.0793 (  2016 PWs)   bands (ev):

   -39.6873 -39.6482 -18.7418 -18.6663 -18.6355 -18.5384 -18.4529 -18.4456
     6.2518   8.3665   8.7219   9.2947  10.4497  10.6935  10.7749

          k = 0.0000 0.3883 0.1587 (  2015 PWs)   bands (ev):

   -39.6827 -39.6528 -18.7603 -18.6800 -18.5990 -18.5276 -18.4570 -18.4566
     6.4495   8.0389   8.8845   9.3858  10.2976  10.6414  10.9260

          k = 0.0000 0.3883 0.2380 (  2016 PWs)   bands (ev):

   -39.6759 -39.6596 -18.7606 -18.7142 -18.5482 -18.5114 -18.4732 -18.4730
     6.7623   7.6098   9.1162   9.4412  10.2074  10.4646  11.1657

          k = 0.0000 0.3883-0.3174 (  2020 PWs)   bands (ev):

   -39.6678 -39.6678 -18.7439 -18.7439 -18.5043 -18.5043 -18.4923 -18.4923
     7.1633   7.1633   9.3427   9.3427  10.2726  10.2726  11.4729

          k = 0.0000 0.4854-0.0000 (  2016 PWs)   bands (ev):

   -39.6756 -39.6455 -18.7562 -18.6815 -18.6675 -18.5582 -18.4835 -18.4513
     7.0412   8.3231   8.4890   9.0084  10.4369  10.5771  10.8274

          k = 0.0000 0.4854 0.0793 (  2018 PWs)   bands (ev):

   -39.6744 -39.6466 -18.7724 -18.6974 -18.6391 -18.5542 -18.4794 -18.4553
     7.0705   8.2317   8.5899   9.0364  10.4444  10.6417  10.7785

          k = 0.0000 0.4854 0.1587 (  2013 PWs)   bands (ev):

   -39.6712 -39.6499 -18.7936 -18.7296 -18.5896 -18.5427 -18.4746 -18.4671
     7.1616   8.0395   8.7917   9.1339  10.4332  10.6511  10.8320

          k = 0.0000 0.4854 0.2380 (  2026 PWs)   bands (ev):

   -39.6663 -39.6548 -18.8008 -18.7642 -18.5411 -18.5255 -18.4846 -18.4808
     7.3185   7.7904   9.0336   9.2493  10.3715  10.4995  11.1375

          k = 0.0000 0.4854-0.3174 (  2012 PWs)   bands (ev):

   -39.6605 -39.6605 -18.7901 -18.7901 -18.5050 -18.5050 -18.5031 -18.5031
     7.5359   7.5359   9.2282   9.2282  10.3765  10.3765  11.5381

          k = 0.0000-0.5824 0.0000 (  2008 PWs)   bands (ev):

   -39.6699 -39.6458 -18.7769 -18.6999 -18.6459 -18.5640 -18.4993 -18.4547
     7.5534   8.0901   8.4301   8.8952  10.3766  10.5260  10.9304

          k = 0.0000-0.5824 0.0793 (  2016 PWs)   bands (ev):

   -39.6690 -39.6468 -18.7898 -18.7144 -18.6244 -18.5600 -18.4931 -18.4589
     7.5256   8.0695   8.5522   8.8862  10.4368  10.5942  10.8555

          k = 0.0000-0.5824 0.1587 (  2010 PWs)   bands (ev):

   -39.6664 -39.6494 -18.8091 -18.7475 -18.5801 -18.5482 -18.4838 -18.4709
     7.5002   7.9786   8.8354   8.9293  10.5421  10.6671  10.7954

          k = 0.0000-0.5824 0.2380 (  2030 PWs)   bands (ev):

   -39.6625 -39.6533 -18.8169 -18.7824 -18.5358 -18.5307 -18.4888 -18.4847
     7.5387   7.8177   9.0701   9.1174  10.4788  10.5518  11.1195

          k = 0.0000-0.5824-0.3174 (  2032 PWs)   bands (ev):

   -39.6579 -39.6579 -18.8076 -18.8076 -18.5098 -18.5098 -18.5021 -18.5021
     7.6526   7.6526   9.1989   9.1989  10.4579  10.4579  11.5474

          k = 0.0841 0.1456-0.0000 (  1999 PWs)   bands (ev):

   -39.7233 -39.6561 -18.8139 -18.5256 -18.4995 -18.4585 -18.4176 -18.3998
     4.4894   7.8292   9.3616  10.1394  10.8769  11.0788  11.1465

          k = 0.0841 0.1456 0.0793 (  1996 PWs)   bands (ev):

   -39.7207 -39.6586 -18.8003 -18.5215 -18.4988 -18.4676 -18.4205 -18.4070
     4.5889   7.6842   9.3276  10.1548  10.8860  10.8997  10.9662

          k = 0.0841 0.1456 0.1587 (  1988 PWs)   bands (ev):

   -39.7135 -39.6660 -18.7616 -18.5142 -18.5097 -18.4791 -18.4286 -18.4245
     4.8808   7.2451   9.3566  10.2040  10.5798  10.8218  10.8717

          k = 0.0841 0.1456 0.2380 (  2006 PWs)   bands (ev):

   -39.7026 -39.6769 -18.7036 -18.5672 -18.4922 -18.4715 -18.4452 -18.4407
     5.3446   6.6124   9.5420  10.1708  10.3610  10.6687  10.8552

          k = 0.0841 0.1456-0.3174 (  2004 PWs)   bands (ev):

   -39.6898 -39.6898 -18.6350 -18.6350 -18.4724 -18.4724 -18.4532 -18.4532
     5.9430   5.9430   9.8404   9.8404  10.4916  10.4917  10.9133

          k = 0.0841 0.2427-0.0000 (  2010 PWs)   bands (ev):

   -39.7106 -39.6518 -18.7787 -18.5860 -18.5487 -18.4964 -18.4317 -18.4166
     5.0642   8.2313   9.0586   9.7137  10.6436  10.8395  11.1413

          k = 0.0841 0.2427 0.0793 (  2011 PWs)   bands (ev):

   -39.7084 -39.6540 -18.7707 -18.5794 -18.5531 -18.5002 -18.4352 -18.4201
     5.1561   8.0908   9.0412   9.7424  10.6502  10.7662  11.0611

          k = 0.0841 0.2427 0.1587 (  2008 PWs)   bands (ev):

   -39.7020 -39.6604 -18.7473 -18.5808 -18.5536 -18.5012 -18.4450 -18.4321
     5.4259   7.6525   9.1220   9.8204  10.4614  10.6918  11.0076

          k = 0.0841 0.2427 0.2380 (  2012 PWs)   bands (ev):

   -39.6925 -39.6700 -18.7111 -18.6194 -18.5260 -18.4936 -18.4596 -18.4518
     5.8555   7.0417   9.3456   9.8660  10.2420  10.5234  11.0620

          k = 0.0841 0.2427-0.3174 (  2010 PWs)   bands (ev):

   -39.6813 -39.6813 -18.6662 -18.6662 -18.4970 -18.4970 -18.4678 -18.4678
     6.4121   6.4121   9.6437   9.6437  10.3195  10.3195  11.1725

          k = 0.0841 0.3398-0.0000 (  2015 PWs)   bands (ev):

   -39.6950 -39.6476 -18.7326 -18.6610 -18.6082 -18.5314 -18.4468 -18.4416
     5.8460   8.5469   8.7797   9.3310  10.5424  10.5795  10.8944

          k = 0.0841 0.3398 0.0793 (  2012 PWs)   bands (ev):

   -39.6932 -39.6495 -18.7401 -18.6460 -18.6121 -18.5314 -18.4522 -18.4399
     5.9237   8.4123   8.8093   9.3703  10.4390  10.6609  10.8734

          k = 0.0841 0.3398 0.1587 (  2014 PWs)   bands (ev):

   -39.6881 -39.6546 -18.7460 -18.6524 -18.5898 -18.5262 -18.4640 -18.4438
     6.1517   8.0212   8.9551   9.4640  10.2902  10.6112  10.9432

          k = 0.0841 0.3398 0.2380 (  2015 PWs)   bands (ev):

   -39.6804 -39.6623 -18.7383 -18.6846 -18.5476 -18.5139 -18.4795 -18.4587
     6.5137   7.5072   9.1880   9.5393  10.1525  10.4087  11.1404

          k = 0.0841 0.3398-0.3174 (  2010 PWs)   bands (ev):

   -39.6714 -39.6714 -18.7163 -18.7163 -18.5148 -18.5148 -18.4802 -18.4802
     6.9809   6.9809   9.4332   9.4332  10.2006  10.2006  11.3867

          k = 0.0841 0.4368-0.0000 (  2018 PWs)   bands (ev):

   -39.6801 -39.6455 -18.7273 -18.6837 -18.6602 -18.5585 -18.4722 -18.4596
     6.7198   8.5077   8.5773   9.0724  10.4134  10.6542  10.7206

          k = 0.0841 0.4368 0.0793 (  2011 PWs)   bands (ev):

   -39.6788 -39.6469 -18.7494 -18.6813 -18.6427 -18.5556 -18.4731 -18.4592
     6.7714   8.3838   8.6668   9.1243  10.3643  10.6436  10.7552

          k = 0.0841 0.4368 0.1587 (  2019 PWs)   bands (ev):

   -39.6750 -39.6506 -18.7718 -18.7083 -18.5964 -18.5442 -18.4826 -18.4579
     6.9226   8.1333   8.8417   9.2411  10.2599  10.5403  10.9029

          k = 0.0841 0.4368 0.2380 (  2018 PWs)   bands (ev):

   -39.6694 -39.6562 -18.7780 -18.7409 -18.5562 -18.5234 -18.4971 -18.4651
     7.1625   7.8099   9.0768   9.3391  10.1696  10.3493  11.1604

          k = 0.0841 0.4368-0.3174 (  2028 PWs)   bands (ev):

   -39.6628 -39.6628 -18.7666 -18.7666 -18.5286 -18.5286 -18.4851 -18.4851
     7.4697   7.4697   9.2881   9.2881  10.1879  10.1879  11.4978

          k = 0.0841 0.5339-0.0000 (  2016 PWs)   bands (ev):

   -39.6700 -39.6458 -18.7657 -18.6903 -18.6463 -18.5733 -18.4990 -18.4672
     7.4789   8.2549   8.4727   8.8907  10.3558  10.4875  10.9247

          k = 0.0841 0.5339 0.0793 (  2016 PWs)   bands (ev):

   -39.6690 -39.6467 -18.7785 -18.7054 -18.6265 -18.5671 -18.4952 -18.4687
     7.4787   8.2056   8.5829   8.9087  10.3743  10.4983  10.9068

          k = 0.0841 0.5339 0.1587 (  2019 PWs)   bands (ev):

   -39.6664 -39.6493 -18.7980 -18.7383 -18.5917 -18.5469 -18.4977 -18.4682
     7.5013   8.0827   8.8151   9.0135  10.3750  10.4490  10.9703

          k = 0.0841 0.5339 0.2380 (  2021 PWs)   bands (ev):

   -39.6625 -39.6532 -18.8060 -18.7726 -18.5623 -18.5191 -18.5096 -18.4703
     7.5796   7.9036   9.0623   9.1987  10.2560  10.3459  11.2172

          k = 0.0841 0.5339-0.3174 (  2024 PWs)   bands (ev):

   -39.6579 -39.6579 -18.7972 -18.7972 -18.5372 -18.5372 -18.4855 -18.4855
     7.7206   7.7206   9.2417   9.2417  10.2274  10.2274  11.5803

          k = 0.1681 0.2912-0.0000 (  2023 PWs)   bands (ev):

   -39.6972 -39.6481 -18.7394 -18.6275 -18.6195 -18.5187 -18.4575 -18.4377
     5.7310   8.5888   8.8388   9.3304  10.5298  10.5311  10.9882

          k = 0.1681 0.2912 0.0793 (  2021 PWs)   bands (ev):

   -39.6954 -39.6500 -18.7414 -18.6242 -18.6128 -18.5246 -18.4609 -18.4366
     5.8122   8.4505   8.8543   9.3655  10.4802  10.5816  10.9294

          k = 0.1681 0.2912 0.1587 (  2023 PWs)   bands (ev):

   -39.6900 -39.6553 -18.7402 -18.6416 -18.5783 -18.5311 -18.4700 -18.4399
     6.0507   8.0286   8.9931   9.4623  10.3299  10.5707  10.9175

          k = 0.1681 0.2912 0.2380 (  2022 PWs)   bands (ev):

   -39.6821 -39.6633 -18.7277 -18.6713 -18.5402 -18.5275 -18.4805 -18.4544
     6.4301   7.4785   9.2270   9.5646  10.1434  10.3642  11.0976

          k = 0.1681 0.2912-0.3174 (  2004 PWs)   bands (ev):

   -39.6727 -39.6727 -18.7031 -18.7031 -18.5217 -18.5217 -18.4759 -18.4759
     6.9215   6.9215   9.4786   9.4786  10.1536  10.1536  11.3291

          k = 0.1681 0.3883-0.0000 (  2021 PWs)   bands (ev):

   -39.6826 -39.6457 -18.6925 -18.6892 -18.6566 -18.5545 -18.4820 -18.4663
     6.5548   8.6691   8.7400   9.0290  10.3139  10.6243  10.7418

          k = 0.1681 0.3883 0.0793 (  2022 PWs)   bands (ev):

   -39.6812 -39.6471 -18.7243 -18.6796 -18.6308 -18.5600 -18.4868 -18.4595
     6.6184   8.5526   8.8000   9.0766  10.2791  10.6455  10.6889

          k = 0.1681 0.3883 0.1587 (  2026 PWs)   bands (ev):

   -39.6772 -39.6511 -18.7471 -18.6952 -18.5885 -18.5609 -18.4964 -18.4526
     6.8044   8.2672   8.9501   9.1908  10.1832  10.4529  10.8197

          k = 0.1681 0.3883 0.2380 (  2020 PWs)   bands (ev):

   -39.6712 -39.6571 -18.7533 -18.7204 -18.5659 -18.5446 -18.4986 -18.4578
     7.0977   7.8815   9.1609   9.3223  10.0518  10.2000  11.0569

          k = 0.1681 0.3883-0.3174 (  2018 PWs)   bands (ev):

   -39.6641 -39.6641 -18.7429 -18.7429 -18.5503 -18.5503 -18.4770 -18.4770
     7.4710   7.4710   9.3379   9.3379  10.0196  10.0196  11.3751

          k = 0.1681 0.4854-0.0000 (  2023 PWs)   bands (ev):

   -39.6701 -39.6457 -18.7366 -18.6740 -18.6471 -18.5892 -18.4985 -18.4982
     7.3870   8.5588   8.5678   8.8707  10.2328  10.4847  10.8900

          k = 0.1681 0.4854 0.0793 (  2025 PWs)   bands (ev):

   -39.6691 -39.6466 -18.7487 -18.6932 -18.6262 -18.5834 -18.5089 -18.4829
     7.4204   8.4601   8.6623   8.9428  10.2073  10.4193  10.9060

          k = 0.1681 0.4854 0.1587 (  2021 PWs)   bands (ev):

   -39.6665 -39.6493 -18.7688 -18.7219 -18.6104 -18.5556 -18.5184 -18.4673
     7.5193   8.3048   8.8325   9.1099  10.1206  10.2395  10.9904

          k = 0.1681 0.4854 0.2380 (  2018 PWs)   bands (ev):

   -39.6625 -39.6532 -18.7788 -18.7516 -18.5938 -18.5528 -18.5016 -18.4630
     7.6782   8.1028   9.0743   9.2884   9.9863  10.0016  11.1796

          k = 0.1681 0.4854-0.3174 (  2016 PWs)   bands (ev):

   -39.6579 -39.6579 -18.7726 -18.7726 -18.5729 -18.5729 -18.4751 -18.4751
     7.8820   7.8820   9.2991   9.2991   9.8854   9.8854  11.4719

          k = 0.1681 0.5824-0.0000 (  2007 PWs)   bands (ev):

   -39.6644 -39.6468 -18.7537 -18.6784 -18.6240 -18.6041 -18.5163 -18.5042
     7.8865   8.3483   8.5348   8.7763  10.2918  10.3023  11.0224

          k = 0.1681 0.5824 0.0793 (  2023 PWs)   bands (ev):

   -39.6638 -39.6474 -18.7633 -18.6942 -18.6293 -18.5784 -18.5223 -18.4930
     7.8716   8.3375   8.6371   8.8051  10.2557  10.2677  11.0329

          k = 0.1681 0.5824 0.1587 (  2025 PWs)   bands (ev):

   -39.6618 -39.6493 -18.7806 -18.7282 -18.6224 -18.5369 -18.5366 -18.4749
     7.8683   8.2759   8.8887   8.9233  10.1347  10.1491  11.1074

          k = 0.1681 0.5824 0.2380 (  2023 PWs)   bands (ev):

   -39.6590 -39.6522 -18.7898 -18.7615 -18.6045 -18.5574 -18.4991 -18.4663
     7.9184   8.1567   9.1372   9.1916   9.9098   9.9725  11.2883

          k = 0.1681 0.5824-0.3174 (  2030 PWs)   bands (ev):

   -39.6556 -39.6556 -18.7837 -18.7837 -18.5813 -18.5813 -18.4742 -18.4742
     8.0230   8.0230   9.3344   9.3344   9.7935   9.7935  11.5658

          k = 0.2522 0.4368-0.0000 (  2027 PWs)   bands (ev):

   -39.6701 -39.6457 -18.7117 -18.6779 -18.6474 -18.5881 -18.5214 -18.4979
     7.3541   8.6219   8.7627   8.8094  10.1519  10.4975  10.8559

          k = 0.2522 0.4368 0.0793 (  2029 PWs)   bands (ev):

   -39.6692 -39.6466 -18.7140 -18.7105 -18.6103 -18.5999 -18.5241 -18.4855
     7.4005   8.5602   8.8012   8.8896  10.1369  10.3892  10.8645

          k = 0.2522 0.4368 0.1587 (  2026 PWs)   bands (ev):

   -39.6665 -39.6492 -18.7424 -18.7245 -18.6124 -18.5727 -18.5240 -18.4673
     7.5341   8.4254   8.9154   9.0573  10.0716  10.1363  10.9181

          k = 0.2522 0.4368 0.2380 (  2014 PWs)   bands (ev):

   -39.6626 -39.6532 -18.7584 -18.7428 -18.6079 -18.5738 -18.4984 -18.4610
     7.7381   8.2269   9.0938   9.2431   9.8674   9.9329  11.0773

          k = 0.2522 0.4368-0.3174 (  2008 PWs)   bands (ev):

   -39.6579 -39.6579 -18.7574 -18.7574 -18.5916 -18.5916 -18.4720 -18.4720
     7.9831   7.9831   9.2742   9.2742   9.7847   9.7847  11.3695

          k = 0.2522 0.5339-0.0000 (  2027 PWs)   bands (ev):

   -39.6606 -39.6480 -18.7285 -18.6655 -18.6263 -18.6072 -18.5462 -18.5304
     8.0459   8.5839   8.6152   8.7069  10.1285  10.2670  11.0865

          k = 0.2522 0.5339 0.0793 (  2028 PWs)   bands (ev):

   -39.6601 -39.6485 -18.7320 -18.6872 -18.6440 -18.5778 -18.5514 -18.5112
     8.0720   8.5510   8.6607   8.7945  10.0892  10.1686  11.0892

          k = 0.2522 0.5339 0.1587 (  2022 PWs)   bands (ev):

   -39.6587 -39.6498 -18.7462 -18.7177 -18.6549 -18.5754 -18.5246 -18.4836
     8.1449   8.5072   8.7937   8.9852   9.9155   9.9720  11.1218

          k = 0.2522 0.5339 0.2380 (  2019 PWs)   bands (ev):

   -39.6567 -39.6518 -18.7602 -18.7448 -18.6434 -18.5964 -18.4892 -18.4672
     8.2484   8.4477   9.0096   9.2337   9.6054   9.7666  11.2358

          k = 0.2522 0.5339-0.3174 (  2020 PWs)   bands (ev):

   -39.6542 -39.6542 -18.7606 -18.7606 -18.6210 -18.6210 -18.4688 -18.4688
     8.3580   8.3580   9.2884   9.2884   9.5091   9.5091  11.4710

          k = 0.3363 0.5824-0.0000 (  2037 PWs)   bands (ev):

   -39.6530 -39.6530 -18.7185 -18.6496 -18.6496 -18.5740 -18.5674 -18.5674
     8.4915   8.4915   8.5899   8.6482  10.1299  10.1299  11.1846

          k = 0.3363 0.5824 0.0793 (  2013 PWs)   bands (ev):

   -39.6529 -39.6529 -18.7129 -18.6741 -18.6741 -18.5795 -18.5424 -18.5424
     8.5380   8.5380   8.6092   8.6692  10.0510  10.0510  11.1821

          k = 0.3363 0.5824 0.1587 (  2016 PWs)   bands (ev):

   -39.6529 -39.6529 -18.7115 -18.7115 -18.6975 -18.5954 -18.5042 -18.5042
     8.6594   8.6698   8.6698   8.7183   9.8471   9.8471  11.1962

          k = 0.3363 0.5824 0.2380 (  2019 PWs)   bands (ev):

   -39.6529 -39.6529 -18.7384 -18.7384 -18.6743 -18.6190 -18.4766 -18.4766
     8.7206   8.7607   8.8585   8.8585   9.5946   9.5946  11.2815

          k = 0.3363 0.5824-0.3174 (  2034 PWs)   bands (ev):

   -39.6529 -39.6529 -18.7481 -18.7481 -18.6468 -18.6468 -18.4667 -18.4667
     8.7626   8.7626   8.9873   8.9873   9.4412   9.4412  11.4904

     the Fermi energy is     9.1561 ev

!    total energy              =    -306.86870635 Ry
     total all-electron energy =     -3050.009477 Ry
     estimated scf accuracy    <          7.1E-11 Ry
     smearing contrib. (-TS)   =      -0.00101109 Ry
     internal energy E=F+TS    =    -306.86769526 Ry

     The total energy is F=E-TS. E is the sum of the following terms:
     one-electron contribution =     -72.50318698 Ry
     hartree contribution      =      41.67084288 Ry
     xc contribution           =     -34.56721722 Ry
     ewald contribution        =    -127.70729756 Ry
     one-center paw contrib.   =    -113.76083638 Ry

     convergence has been achieved in  25 iterations

     Forces acting on atoms (cartesian axes, Ry/au):

     atom    1 type  1   force =     0.00000000    0.00000000   -0.00000000
     atom    2 type  1   force =    -0.00000000   -0.00000000    0.00000000
     The non-local contrib.  to forces
     atom    1 type  1   force =     0.00000000    0.00000000    0.00000000
     atom    2 type  1   force =    -0.00000000    0.00000000   -0.00000000
     The ionic contribution  to forces
     atom    1 type  1   force =     0.00000000   -0.00000000    0.00000000
     atom    2 type  1   force =    -0.00000000    0.00000000    0.00000000
     The local contribution  to forces
     atom    1 type  1   force =    -0.00000000    0.00000000    0.00000000
     atom    2 type  1   force =    -0.00000000    0.00000000    0.00000000
     The core correction contribution to forces
     atom    1 type  1   force =    -0.00000000    0.00000000   -0.00000000
     atom    2 type  1   force =     0.00000000   -0.00000000    0.00000000
     The Hubbard contrib.    to forces
     atom    1 type  1   force =     0.00000000    0.00000000    0.00000000
     atom    2 type  1   force =     0.00000000    0.00000000    0.00000000
     The SCF correction term to forces
     atom    1 type  1   force =     0.00000000    0.00000000   -0.00000000
     atom    2 type  1   force =    -0.00000000   -0.00000000   -0.00000000

     Total force =     0.000000     Total SCF correction =     0.000000


     Computing stress (Cartesian axis) and pressure

          total   stress  (Ry/bohr**3)                   (kbar)     P=      -45.04
  -0.00026690  -0.00000000   0.00000000          -39.26       -0.00        0.00
  -0.00000000  -0.00026690   0.00000000           -0.00      -39.26        0.00
  -0.00000000  -0.00000000  -0.00038470           -0.00       -0.00      -56.59

     Energy error            =      3.5E-03 Ry
     Gradient error          =      1.6E-27 Ry/Bohr
     Cell gradient error     =      5.7E+01 kbar

     number of scf cycles    =   2
     number of bfgs steps    =   1

     enthalpy           old  =    -306.8652377215 Ry
     enthalpy           new  =    -306.8687063470 Ry

     CASE: enthalpy          _new < enthalpy          _old

     new trust radius        =       0.0644603785 bohr
     new conv_thr            =            1.0E-10 Ry

     new unit-cell volume =    314.06112 a.u.^3 (    46.53906 Ang^3 )
     density =      3.18242 g/cm^3

CELL_PARAMETERS (alat=  6.25310370)
   0.979077036  -0.000000000  -0.000000000
  -0.489538518   0.847905585  -0.000000000
   0.000000000   0.000000000   1.547258660

ATOMIC_POSITIONS (crystal)
Sc            0.0000000000        0.0000000000       -0.0000000000
Sc            0.6666666667        0.3333333333        0.5000000000



     Writing config-only to output data dir sc_vcrelax.out/scandium.save/
     NEW-OLD atomic charge density approx. for the potential

     Check: negative core charge=   -0.000011
     extrapolated charge   21.04093, renormalised to   22.00000

     total cpu time spent up to now is     1163.3 secs

     Self-consistent Calculation

     iteration #  1     ecut=    50.00 Ry     beta= 0.70
     Davidson diagonalization with overlap
     c_bands:  1 eigenvalues not converged
     c_bands:  2 eigenvalues not converged
     c_bands:  2 eigenvalues not converged
     c_bands:  1 eigenvalues not converged
     c_bands:  1 eigenvalues not converged
     c_bands:  3 eigenvalues not converged
     c_bands:  4 eigenvalues not converged
     c_bands:  2 eigenvalues not converged
     c_bands:  1 eigenvalues not converged
     c_bands:  2 eigenvalues not converged
     c_bands:  2 eigenvalues not converged
     c_bands:  5 eigenvalues not converged
     c_bands:  3 eigenvalues not converged
     ethr =  1.00E-06,  avg # of iterations = 20.0

     total cpu time spent up to now is     1195.9 secs

     total energy              =    -306.60700055 Ry
     estimated scf accuracy    <       0.19317272 Ry

     iteration #  2     ecut=    50.00 Ry     beta= 0.70
     Davidson diagonalization with overlap
     ethr =  8.78E-04,  avg # of iterations =  7.3

     total cpu time spent up to now is     1215.2 secs

     total energy              =    -306.87954025 Ry
     estimated scf accuracy    <       0.32666697 Ry

     iteration #  3     ecut=    50.00 Ry     beta= 0.70
     Davidson diagonalization with overlap
     ethr =  8.78E-04,  avg # of iterations =  1.3

     total cpu time spent up to now is     1235.0 secs

     total energy              =    -306.87407108 Ry
     estimated scf accuracy    <       0.09399488 Ry

     iteration #  4     ecut=    50.00 Ry     beta= 0.70
     Davidson diagonalization with overlap
     ethr =  4.27E-04,  avg # of iterations =  2.9

     total cpu time spent up to now is     1260.9 secs

     total energy              =    -306.87206304 Ry
     estimated scf accuracy    <       0.04365642 Ry

     iteration #  5     ecut=    50.00 Ry     beta= 0.70
     Davidson diagonalization with overlap
     ethr =  1.98E-04,  avg # of iterations =  2.3

     total cpu time spent up to now is     1284.2 secs

     total energy              =    -306.87655210 Ry
     estimated scf accuracy    <       0.02210087 Ry

     iteration #  6     ecut=    50.00 Ry     beta= 0.70
     Davidson diagonalization with overlap
     ethr =  1.00E-04,  avg # of iterations =  1.7

     total cpu time spent up to now is     1307.4 secs

     total energy              =    -306.88035613 Ry
     estimated scf accuracy    <       0.02280274 Ry

     iteration #  7     ecut=    50.00 Ry     beta= 0.70
     Davidson diagonalization with overlap
     ethr =  1.00E-04,  avg # of iterations =  1.0

     total cpu time spent up to now is     1327.3 secs

     total energy              =    -306.87601864 Ry
     estimated scf accuracy    <       0.02667896 Ry

     iteration #  8     ecut=    50.00 Ry     beta= 0.70
     Davidson diagonalization with overlap
     ethr =  1.00E-04,  avg # of iterations =  1.1

     total cpu time spent up to now is     1363.5 secs

     total energy              =    -306.86209490 Ry
     estimated scf accuracy    <       0.01792984 Ry

     iteration #  9     ecut=    50.00 Ry     beta= 0.70
     Davidson diagonalization with overlap
     ethr =  8.15E-05,  avg # of iterations =  5.9

     total cpu time spent up to now is     1397.3 secs

     total energy              =    -306.87706951 Ry
     estimated scf accuracy    <       0.00627761 Ry

     iteration # 10     ecut=    50.00 Ry     beta= 0.70
     Davidson diagonalization with overlap
     ethr =  2.85E-05,  avg # of iterations =  4.7

     total cpu time spent up to now is     1435.4 secs

     total energy              =    -306.87330221 Ry
     estimated scf accuracy    <       0.01323449 Ry

     iteration # 11     ecut=    50.00 Ry     beta= 0.70
     Davidson diagonalization with overlap
     ethr =  2.85E-05,  avg # of iterations =  1.2

     total cpu time spent up to now is     1470.3 secs

     total energy              =    -306.87398869 Ry
     estimated scf accuracy    <       0.00539547 Ry

     iteration # 12     ecut=    50.00 Ry     beta= 0.70
     Davidson diagonalization with overlap
     ethr =  2.45E-05,  avg # of iterations =  1.0

     total cpu time spent up to now is     1505.2 secs

     total energy              =    -306.87494627 Ry
     estimated scf accuracy    <       0.00581215 Ry

     iteration # 13     ecut=    50.00 Ry     beta= 0.70
     Davidson diagonalization with overlap
     ethr =  2.45E-05,  avg # of iterations =  1.0

     total cpu time spent up to now is     1544.5 secs

     total energy              =    -306.87524463 Ry
     estimated scf accuracy    <       0.00726598 Ry

     iteration # 14     ecut=    50.00 Ry     beta= 0.70
     Davidson diagonalization with overlap
     ethr =  2.45E-05,  avg # of iterations =  1.0

     total cpu time spent up to now is     1588.5 secs

     total energy              =    -306.86863755 Ry
     estimated scf accuracy    <       0.00782399 Ry

     iteration # 15     ecut=    50.00 Ry     beta= 0.70
     Davidson diagonalization with overlap
     ethr =  2.45E-05,  avg # of iterations =  6.0

     total cpu time spent up to now is     1631.1 secs

     total energy              =    -306.87338512 Ry
     estimated scf accuracy    <       0.00390628 Ry

     iteration # 16     ecut=    50.00 Ry     beta= 0.70
     Davidson diagonalization with overlap
     ethr =  1.78E-05,  avg # of iterations =  2.1

     total cpu time spent up to now is     1679.3 secs

     total energy              =    -306.87093952 Ry
     estimated scf accuracy    <       0.00347442 Ry

     iteration # 17     ecut=    50.00 Ry     beta= 0.70
     Davidson diagonalization with overlap
     ethr =  1.58E-05,  avg # of iterations =  3.9

     total cpu time spent up to now is     1718.6 secs

     total energy              =    -306.87217482 Ry
     estimated scf accuracy    <       0.00009187 Ry

     iteration # 18     ecut=    50.00 Ry     beta= 0.70
     Davidson diagonalization with overlap
     ethr =  4.18E-07,  avg # of iterations =  9.2

     total cpu time spent up to now is     1762.1 secs

     total energy              =    -306.87200522 Ry
     estimated scf accuracy    <       0.00073208 Ry

     iteration # 19     ecut=    50.00 Ry     beta= 0.70
     Davidson diagonalization with overlap
     ethr =  4.18E-07,  avg # of iterations =  6.4

     total cpu time spent up to now is     1801.5 secs

     total energy              =    -306.87210711 Ry
     estimated scf accuracy    <       0.00002004 Ry

     iteration # 20     ecut=    50.00 Ry     beta= 0.70
     Davidson diagonalization with overlap
     ethr =  9.11E-08,  avg # of iterations =  4.9

     total cpu time spent up to now is     1834.1 secs

     total energy              =    -306.87210914 Ry
     estimated scf accuracy    <       0.00000521 Ry

     iteration # 21     ecut=    50.00 Ry     beta= 0.70
     Davidson diagonalization with overlap
     ethr =  2.37E-08,  avg # of iterations =  6.4

     total cpu time spent up to now is     1876.1 secs

     total energy              =    -306.87211288 Ry
     estimated scf accuracy    <       0.00000016 Ry

     iteration # 22     ecut=    50.00 Ry     beta= 0.70
     Davidson diagonalization with overlap
     ethr =  7.23E-10,  avg # of iterations = 12.3

     total cpu time spent up to now is     1915.3 secs

     total energy              =    -306.87211172 Ry
     estimated scf accuracy    <       0.00000254 Ry

     iteration # 23     ecut=    50.00 Ry     beta= 0.70
     Davidson diagonalization with overlap
     ethr =  7.23E-10,  avg # of iterations = 10.4

     total cpu time spent up to now is     1951.4 secs

     total energy              =    -306.87211300 Ry
     estimated scf accuracy    <       0.00000058 Ry

     iteration # 24     ecut=    50.00 Ry     beta= 0.70
     Davidson diagonalization with overlap
     ethr =  7.23E-10,  avg # of iterations =  1.3

     total cpu time spent up to now is     1987.3 secs

     total energy              =    -306.87211273 Ry
     estimated scf accuracy    <       0.00000078 Ry

     iteration # 25     ecut=    50.00 Ry     beta= 0.70
     Davidson diagonalization with overlap
     ethr =  7.23E-10,  avg # of iterations =  2.0

     total cpu time spent up to now is     2023.4 secs

     total energy              =    -306.87211258 Ry
     estimated scf accuracy    <       0.00000031 Ry

     iteration # 26     ecut=    50.00 Ry     beta= 0.70
     Davidson diagonalization with overlap
     ethr =  7.23E-10,  avg # of iterations =  5.3

     total cpu time spent up to now is     2057.5 secs

     total energy              =    -306.87211266 Ry
     estimated scf accuracy    <          4.3E-10 Ry

     iteration # 27     ecut=    50.00 Ry     beta= 0.70
     Davidson diagonalization with overlap
     c_bands:  1 eigenvalues not converged
     c_bands:  1 eigenvalues not converged
     c_bands:  2 eigenvalues not converged
     ethr =  1.94E-12,  avg # of iterations = 17.4

     total cpu time spent up to now is     2089.4 secs

     total energy              =    -306.87211266 Ry
     estimated scf accuracy    <       0.00000003 Ry

     iteration # 28     ecut=    50.00 Ry     beta= 0.70
     Davidson diagonalization with overlap
     ethr =  1.94E-12,  avg # of iterations = 13.1

     total cpu time spent up to now is     2124.9 secs

     total energy              =    -306.87211267 Ry
     estimated scf accuracy    <          5.1E-10 Ry

     iteration # 29     ecut=    50.00 Ry     beta= 0.70
     Davidson diagonalization with overlap
     ethr =  1.94E-12,  avg # of iterations =  1.1

     total cpu time spent up to now is     2167.3 secs

     total energy              =    -306.87211267 Ry
     estimated scf accuracy    <          2.3E-10 Ry

     iteration # 30     ecut=    50.00 Ry     beta= 0.70
     Davidson diagonalization with overlap
     ethr =  1.07E-12,  avg # of iterations =  3.3

     total cpu time spent up to now is     2225.6 secs

     End of self-consistent calculation

          k = 0.0000 0.0000 0.0000 (  1997 PWs)   bands (ev):

   -39.1301 -39.0398 -18.2821 -17.8523 -17.8523 -17.7754 -17.7754 -17.7512
     4.4565   7.9025  10.3501  11.2743  11.2743  11.4563  11.7355

          k = 0.0000 0.0000 0.0808 (  1973 PWs)   bands (ev):

[...]

          k = 0.0000 0.3958 0.1665 (  1791 PWs)   bands (ev):

   -38.4206 -38.3726 -17.5870 -17.4625 -17.3514 -17.2748 -17.1676 -17.1597
     7.4443   9.0696   9.8349  10.3994  11.4739  11.8943  11.9694

          k = 0.0000 0.3958 0.2498 (  1795 PWs)   bands (ev):

   -38.4096 -38.3836 -17.5865 -17.5155 -17.2803 -17.2504 -17.1924 -17.1781
     7.7686   8.6417  10.1022  10.4781  11.3643  11.6746  12.2453

          k = 0.0000 0.3958-0.3331 (  1786 PWs)   bands (ev):

   -38.3966 -38.3966 -17.5607 -17.5607 -17.2214 -17.2214 -17.2193 -17.2193
     8.1833   8.1833  10.3715  10.3715  11.4384  11.4385  12.6011

          k = 0.0000 0.4948-0.0000 (  1800 PWs)   bands (ev):

   -38.4114 -38.3631 -17.5567 -17.4663 -17.4440 -17.3174 -17.2072 -17.1556
     8.0251   9.2080   9.4573  10.0186  11.5749  11.6823  12.1265

          k = 0.0000 0.4948 0.0833 (  1799 PWs)   bands (ev):

   -38.4095 -38.3650 -17.5872 -17.4729 -17.4160 -17.3113 -17.1974 -17.1619
     8.0456   9.1530   9.5480  10.0453  11.6499  11.6895  12.0671

          k = 0.0000 0.4948 0.1665 (  1796 PWs)   bands (ev):

   -38.4043 -38.3702 -17.6218 -17.5237 -17.3423 -17.2939 -17.1842 -17.1796
     8.1189   8.9898   9.7649  10.1656  11.6653  11.8710  11.9159

          k = 0.0000 0.4948 0.2498 (  1803 PWs)   bands (ev):

   -38.3965 -38.3780 -17.6330 -17.5775 -17.2716 -17.2679 -17.2061 -17.1883
     8.2632   8.7412  10.0465  10.3216  11.5698  11.7415  12.2262

          k = 0.0000 0.4948-0.3331 (  1798 PWs)   bands (ev):

   -38.3872 -38.3872 -17.6171 -17.6171 -17.2371 -17.2371 -17.2178 -17.2178
     8.4797   8.4797  10.2914  10.2914  11.5818  11.5824  12.6931

          k =-0.0000-0.5938 0.0000 (  1802 PWs)   bands (ev):

   -38.4031 -38.3646 -17.5823 -17.4665 -17.4365 -17.3248 -17.2300 -17.1595
     8.5181   8.9863   9.3728   9.9190  11.5186  11.6341  12.2469

          k =-0.0000-0.5938 0.0833 (  1808 PWs)   bands (ev):

   -38.4016 -38.3660 -17.6061 -17.4915 -17.4000 -17.3187 -17.2169 -17.1659
     8.4663   8.9798   9.5338   9.8926  11.5979  11.7051  12.1529

          k =-0.0000-0.5938 0.1665 (  1814 PWs)   bands (ev):

   -38.3974 -38.3702 -17.6390 -17.5454 -17.3312 -17.3010 -17.1969 -17.1841
     8.4100   8.9094   9.8872   9.9164  11.8273  11.8322  11.9168

          k =-0.0000-0.5938 0.2498 (  1794 PWs)   bands (ev):

   -38.3912 -38.3764 -17.6519 -17.5998 -17.2742 -17.2649 -17.2111 -17.1936
     8.4381   8.7430  10.0844  10.2177  11.6884  11.8301  12.2104

          k =-0.0000-0.5938-0.3331 (  1788 PWs)   bands (ev):

   -38.3838 -38.3838 -17.6382 -17.6382 -17.2427 -17.2427 -17.2165 -17.2165
     8.5606   8.5606  10.2735  10.2735  11.6909  11.6910  12.7112

          k = 0.0857 0.1484-0.0000 (  1793 PWs)   bands (ev):

   -38.4787 -38.3711 -17.6661 -17.2717 -17.2404 -17.1732 -17.1195 -17.0834
     5.4075   8.7897  10.6837  11.1839  12.0726  12.2192  12.2346

          k = 0.0857 0.1484 0.0833 (  1790 PWs)   bands (ev):

   -38.4746 -38.3752 -17.6475 -17.2654 -17.2379 -17.1876 -17.1239 -17.0936
     5.5190   8.6923  10.5744  11.1954  12.0443  12.0774  12.1124

          k = 0.0857 0.1484 0.1665 (  1788 PWs)   bands (ev):

   -38.4631 -38.3870 -17.5944 -17.2521 -17.2473 -17.2110 -17.1363 -17.1188
     5.8448   8.3324  10.4791  11.2340  11.7791  11.9145  12.0532

          k = 0.0857 0.1484 0.2498 (  1780 PWs)   bands (ev):

   -38.4457 -38.4045 -17.5142 -17.3249 -17.2203 -17.1992 -17.1545 -17.1506
     6.3582   7.7159  10.6116  11.2161  11.5314  11.8192  11.9328

          k = 0.0857 0.1484-0.3331 (  1770 PWs)   bands (ev):

   -38.4251 -38.4251 -17.4191 -17.4191 -17.1905 -17.1905 -17.1729 -17.1729
     7.0101   7.0101  10.9131  10.9131  11.6276  11.6278  11.9875

          k = 0.0857 0.2474-0.0000 (  1801 PWs)   bands (ev):

   -38.4610 -38.3668 -17.6186 -17.3456 -17.2956 -17.2265 -17.1353 -17.1088
     6.0121   9.1854  10.2579  10.7065  11.8526  11.9200  12.2599

          k = 0.0857 0.2474 0.0833 (  1794 PWs)   bands (ev):

   -38.4575 -38.3704 -17.6079 -17.3356 -17.2995 -17.2355 -17.1405 -17.1122
     6.1138   9.1083  10.1650  10.7373  11.8146  11.9385  12.1546

          k = 0.0857 0.2474 0.1665 (  1790 PWs)   bands (ev):

   -38.4473 -38.3807 -17.5764 -17.3385 -17.2970 -17.2399 -17.1549 -17.1268
     6.4113   8.7566  10.1396  10.8209  11.6134  11.9201  12.0691

          k = 0.0857 0.2474 0.2498 (  1783 PWs)   bands (ev):

   -38.4321 -38.3960 -17.5265 -17.3956 -17.2562 -17.2262 -17.1756 -17.1558
     6.8817   8.1499  10.3445  10.8733  11.3965  11.7091  12.1373

          k = 0.0857 0.2474-0.3331 (  1782 PWs)   bands (ev):

   -38.4141 -38.4141 -17.4634 -17.4634 -17.2180 -17.2180 -17.1871 -17.1871
     7.4839   7.4839  10.6593  10.6593  11.4702  11.4702  12.2667

          k = 0.0857 0.3464-0.0000 (  1798 PWs)   bands (ev):

   -38.4392 -38.3633 -17.5559 -17.4385 -17.3616 -17.2770 -17.1521 -17.1458
     6.8248   9.4723   9.8621  10.2992  11.6660  11.7853  12.0226

          k = 0.0857 0.3464 0.0833 (  1799 PWs)   bands (ev):

   -38.4363 -38.3662 -17.5651 -17.4185 -17.3674 -17.2792 -17.1599 -17.1412
     6.9082   9.4265   9.8093  10.3464  11.5836  11.8592  11.9850

          k = 0.0857 0.3464 0.1665 (  1793 PWs)   bands (ev):

   -38.4281 -38.3744 -17.5722 -17.4291 -17.3388 -17.2720 -17.1769 -17.1427
     7.1523   9.1012   9.9069  10.4569  11.4320  11.8372  12.0169

          k = 0.0857 0.3464 0.2498 (  1792 PWs)   bands (ev):

   -38.4158 -38.3868 -17.5602 -17.4789 -17.2824 -17.2496 -17.1995 -17.1618
     7.5381   8.5816  10.1656  10.5525  11.2865  11.5905  12.2369

          k = 0.0857 0.3464-0.3331 (  1792 PWs)   bands (ev):

   -38.4013 -38.4013 -17.5271 -17.5271 -17.2431 -17.2431 -17.1962 -17.1962
     8.0320   8.0320  10.4447  10.4447  11.3424  11.3424  12.5131

          k = 0.0857 0.4453-0.0000 (  1796 PWs)   bands (ev):

   -38.4179 -38.3626 -17.5210 -17.4887 -17.4206 -17.3149 -17.1907 -17.1666
     7.7130   9.4011   9.5688  10.0583  11.5129  11.7898  12.0004

          k = 0.0857 0.4453 0.0833 (  1794 PWs)   bands (ev):

   -38.4158 -38.3647 -17.5626 -17.4612 -17.4121 -17.3115 -17.1874 -17.1673
     7.7628   9.3430   9.6071  10.1195  11.5062  11.7585  12.0056

          k = 0.0857 0.4453 0.1665 (  1802 PWs)   bands (ev):

   -38.4098 -38.3707 -17.5972 -17.4986 -17.3517 -17.2925 -17.1990 -17.1625
     7.9101   9.1217   9.7896  10.2648  11.4240  11.7152  12.0478

          k = 0.0857 0.4453 0.2498 (  1793 PWs)   bands (ev):

   -38.4008 -38.3796 -17.6062 -17.5492 -17.3002 -17.2550 -17.2205 -17.1695
     8.1476   8.8004  10.0725  10.3966  11.3178  11.5246  12.2891

          k = 0.0857 0.4453-0.3331 (  1792 PWs)   bands (ev):

   -38.3902 -38.3902 -17.5886 -17.5886 -17.2637 -17.2637 -17.1978 -17.1978
     8.4564   8.4564  10.3374  10.3374  11.3356  11.3356  12.6629

          k = 0.0857 0.5443-0.0000 (  1801 PWs)   bands (ev):

   -38.4032 -38.3645 -17.5688 -17.4553 -17.4371 -17.3352 -17.2295 -17.1750
     8.4547   9.1524   9.4142   9.9007  11.4649  11.6273  12.2334

          k = 0.0857 0.5443 0.0833 (  1795 PWs)   bands (ev):

   -38.4017 -38.3660 -17.5925 -17.4817 -17.4031 -17.3255 -17.2190 -17.1782
     8.4375   9.1225   9.5460   9.9102  11.5014  11.6476  12.1844

          k = 0.0857 0.5443 0.1665 (  1802 PWs)   bands (ev):

   -38.3975 -38.3701 -17.6253 -17.5350 -17.3522 -17.2916 -17.2175 -17.1770
     8.4329   9.0229   9.8092  10.0368  11.5165  11.6618  12.1555

          k = 0.0857 0.5443 0.2498 (  1799 PWs)   bands (ev):

   -38.3912 -38.3764 -17.6385 -17.5884 -17.3120 -17.2470 -17.2347 -17.1763
     8.4982   8.8401  10.0825  10.2853  11.3925  11.5725  12.3724

          k = 0.0857 0.5443-0.3331 (  1800 PWs)   bands (ev):

   -38.3838 -38.3838 -17.6256 -17.6256 -17.2757 -17.2757 -17.1968 -17.1968
     8.6436   8.6436  10.3171  10.3171  11.4004  11.4006  12.7745

          k = 0.1714 0.2969-0.0000 (  1793 PWs)   bands (ev):

   -38.4423 -38.3636 -17.5651 -17.3940 -17.3849 -17.2547 -17.1659 -17.1401
     6.7077   9.5289   9.9401  10.2873  11.5983  11.7587  12.1260

          k = 0.1714 0.2969 0.0833 (  1795 PWs)   bands (ev):

   -38.4393 -38.3666 -17.5678 -17.3909 -17.3730 -17.2663 -17.1712 -17.1360
     6.7958   9.4873   9.8646  10.3276  11.5654  11.8133  12.0463

          k = 0.1714 0.2969 0.1665 (  1791 PWs)   bands (ev):

   -38.4308 -38.3752 -17.5659 -17.4165 -17.3234 -17.2778 -17.1857 -17.1366
     7.0537   9.1349   9.9449  10.4402  11.4430  11.7971  12.0060

          k = 0.1714 0.2969 0.2498 (  1783 PWs)   bands (ev):

   -38.4181 -38.3880 -17.5475 -17.4627 -17.2697 -17.2697 -17.2021 -17.1549
     7.4616   8.5726  10.2009  10.5634  11.2640  11.5318  12.2089

          k = 0.1714 0.2969-0.3331 (  1792 PWs)   bands (ev):

   -38.4030 -38.4030 -17.5111 -17.5111 -17.2539 -17.2539 -17.1886 -17.1886
     7.9857   7.9857  10.4807  10.4807  11.2823  11.2823  12.4594

          k = 0.1714 0.3958-0.0000 (  1792 PWs)   bands (ev):

   -38.4215 -38.3624 -17.5008 -17.4732 -17.4257 -17.3012 -17.1946 -17.1820
     7.5548   9.6572   9.6767   9.9774  11.3890  11.8857  11.8926

          k = 0.1714 0.3958 0.0833 (  1792 PWs)   bands (ev):

   -38.4192 -38.3646 -17.5375 -17.4621 -17.3943 -17.3125 -17.2021 -17.1686
     7.6208   9.5691   9.7226  10.0375  11.3722  11.7967  11.9171

          k = 0.1714 0.3958 0.1665 (  1794 PWs)   bands (ev):

   -38.4128 -38.3710 -17.5692 -17.4849 -17.3406 -17.3108 -17.2173 -17.1539
     7.8132   9.2971   9.8988  10.1771  11.2963  11.5989  11.9981

          k = 0.1714 0.3958 0.2498 (  1800 PWs)   bands (ev):

   -38.4033 -38.3806 -17.5770 -17.5249 -17.3175 -17.2785 -17.2203 -17.1581
     8.1157   8.9150  10.1520  10.3401  11.1606  11.3238  12.2156

          k = 0.1714 0.3958-0.3331 (  1792 PWs)   bands (ev):

   -38.3919 -38.3919 -17.5602 -17.5602 -17.2927 -17.2927 -17.1851 -17.1851
     8.4987   8.4987  10.3661  10.3661  11.1190  11.1190  12.5507

          k = 0.1714 0.4948-0.0000 (  1792 PWs)   bands (ev):

   -38.4034 -38.3643 -17.5336 -17.4407 -17.4381 -17.3487 -17.2283 -17.2135
     8.3855   9.4643   9.5055   9.8453  11.3192  11.6461  12.1827

          k = 0.1714 0.4948 0.0833 (  1795 PWs)   bands (ev):

   -38.4019 -38.3658 -17.5559 -17.4761 -17.3977 -17.3418 -17.2313 -17.1996
     8.4129   9.4039   9.5825   9.9260  11.3134  11.5680  12.1773

          k = 0.1714 0.4948 0.1665 (  1794 PWs)   bands (ev):

   -38.3976 -38.3700 -17.5896 -17.5183 -17.3793 -17.2953 -17.2444 -17.1740
     8.4986   9.2644   9.7822  10.1280  11.2510  11.3718  12.2129

          k = 0.1714 0.4948 0.2498 (  1795 PWs)   bands (ev):

   -38.3913 -38.3764 -17.6056 -17.5643 -17.3546 -17.2907 -17.2195 -17.1647
     8.6460   9.0656  10.0787  10.3599  11.0752  11.1364  12.3788

          k = 0.1714 0.4948-0.3331 (  1796 PWs)   bands (ev):

   -38.3838 -38.3838 -17.5965 -17.5965 -17.3221 -17.3221 -17.1807 -17.1807
     8.8449   8.8449  10.3712  10.3712  10.9758  10.9758  12.6874

          k = 0.1714 0.5938-0.0000 (  1795 PWs)   bands (ev):

   -38.3950 -38.3667 -17.5553 -17.4418 -17.4060 -17.3710 -17.2544 -17.2202
     8.8585   9.2775   9.4464   9.7613  11.3418  11.5098  12.3327

          k = 0.1714 0.5938 0.0833 (  1798 PWs)   bands (ev):

   -38.3939 -38.3678 -17.5726 -17.4696 -17.4104 -17.3332 -17.2511 -17.2112
     8.8218   9.2804   9.5854   9.7803  11.3235  11.4693  12.3184

          k = 0.1714 0.5938 0.1665 (  1800 PWs)   bands (ev):

   -38.3909 -38.3709 -17.6022 -17.5250 -17.3970 -17.2709 -17.2668 -17.1843
     8.7937   9.2336   9.8964   9.9056  11.2173  11.3496  12.3427

          k = 0.1714 0.5938 0.2498 (  1799 PWs)   bands (ev):

   -38.3862 -38.3754 -17.6181 -17.5767 -17.3687 -17.2969 -17.2151 -17.1690
     8.8376   9.1044  10.1476  10.2811  10.9830  11.1428  12.5035

          k = 0.1714 0.5938-0.3331 (  1800 PWs)   bands (ev):

   -38.3808 -38.3808 -17.6098 -17.6098 -17.3331 -17.3331 -17.1789 -17.1789
     8.9525   8.9525  10.4226  10.4226  10.8897  10.8898  12.8019

          k = 0.2571 0.4453-0.0000 (  1789 PWs)   bands (ev):

   -38.4034 -38.3643 -17.5037 -17.4518 -17.4387 -17.3407 -17.2414 -17.2277
     8.3638   9.5568   9.6949   9.7421  11.2375  11.6599  12.1410

          k = 0.2571 0.4453 0.0833 (  1797 PWs)   bands (ev):

   -38.4019 -38.3658 -17.5116 -17.5066 -17.3712 -17.3625 -17.2467 -17.2052
     8.4097   9.4951   9.7398   9.8450  11.2316  11.5340  12.1386

          k = 0.2571 0.4453 0.1665 (  1798 PWs)   bands (ev):

   -38.3977 -38.3700 -17.5591 -17.5232 -17.3830 -17.3124 -17.2508 -17.1737
     8.5418   9.3769   9.8750  10.0560  11.1811  11.2454  12.1589

          k = 0.2571 0.4453 0.2498 (  1795 PWs)   bands (ev):

   -38.3913 -38.3763 -17.5820 -17.5543 -17.3731 -17.3160 -17.2138 -17.1614
     8.7410   9.2017  10.0925  10.2936  10.9337  11.0359  12.2903

          k = 0.2571 0.4453-0.3331 (  1794 PWs)   bands (ev):

   -38.3838 -38.3838 -17.5788 -17.5788 -17.3456 -17.3456 -17.1756 -17.1756
     8.9756   8.9756  10.3272  10.3272  10.8485  10.8485  12.5896

          k = 0.2571 0.5443-0.0000 (  1794 PWs)   bands (ev):

   -38.3893 -38.3691 -17.5272 -17.4337 -17.3890 -17.3826 -17.2743 -17.2703
     9.0346   9.5010   9.5285   9.6595  11.2300  11.4353  12.3974

          k = 0.2571 0.5443 0.0833 (  1793 PWs)   bands (ev):

   -38.3885 -38.3699 -17.5329 -17.4736 -17.4204 -17.3288 -17.2810 -17.2397
     9.0547   9.4817   9.5872   9.7490  11.1967  11.3257  12.3867

          k = 0.2571 0.5443 0.1665 (  1793 PWs)   bands (ev):

   -38.3863 -38.3720 -17.5587 -17.5181 -17.4379 -17.3125 -17.2517 -17.1955
     9.1151   9.4541   9.7509   9.9687  11.0485  11.0850  12.3893

          k = 0.2571 0.5443 0.2498 (  1798 PWs)   bands (ev):

   -38.3830 -38.3753 -17.5826 -17.5597 -17.4174 -17.3439 -17.1998 -17.1692
     9.2091   9.4021  10.0126  10.2624  10.7032  10.8716  12.4818

          k = 0.2571 0.5443-0.3331 (  1802 PWs)   bands (ev):

   -38.3791 -38.3791 -17.5837 -17.5837 -17.3819 -17.3819 -17.1703 -17.1703
     9.3149   9.3149  10.3405  10.3405  10.5843  10.5843  12.7247

          k = 0.3428 0.5938-0.0000 (  1779 PWs)   bands (ev):

   -38.3775 -38.3775 -17.5190 -17.4153 -17.4153 -17.3267 -17.3267 -17.3012
     9.4537   9.4537   9.5092   9.5542  11.2719  11.2719  12.5087

          k = 0.3428 0.5938 0.0833 (  1797 PWs)   bands (ev):

   -38.3775 -38.3775 -17.5109 -17.4583 -17.4583 -17.3098 -17.2832 -17.2832
     9.5051   9.5051   9.5405   9.5754  11.1878  11.1878  12.4957

          k = 0.3428 0.5938 0.1665 (  1800 PWs)   bands (ev):

   -38.3774 -38.3774 -17.5164 -17.5164 -17.4878 -17.3338 -17.2236 -17.2236
     9.6179   9.6307   9.6508   9.6508  10.9715  10.9715  12.4851

          k = 0.3428 0.5938 0.2498 (  1797 PWs)   bands (ev):

   -38.3774 -38.3774 -17.5569 -17.5569 -17.4529 -17.3695 -17.1816 -17.1816
     9.6935   9.6957   9.8543   9.8543  10.7062  10.7062  12.5490

          k = 0.3428 0.5938-0.3331 (  1830 PWs)   bands (ev):

   -38.3774 -38.3774 -17.5713 -17.5713 -17.4115 -17.4115 -17.1668 -17.1668
     9.7247   9.7247   9.9855   9.9855  10.5514  10.5515  12.7614

     the Fermi energy is    10.1781 ev

!    total energy              =    -306.87182213 Ry
     total all-electron energy =     -3050.012593 Ry
     estimated scf accuracy    <          3.3E-11 Ry
     smearing contrib. (-TS)   =      -0.00077417 Ry
     internal energy E=F+TS    =    -306.87104795 Ry

     The total energy is F=E-TS. E is the sum of the following terms:
     one-electron contribution =     -66.92627530 Ry
     hartree contribution      =      39.91390267 Ry
     xc contribution           =     -34.68696227 Ry
     ewald contribution        =    -131.41138957 Ry
     one-center paw contrib.   =    -113.76032347 Ry

     convergence has been achieved in   9 iterations

     Forces acting on atoms (cartesian axes, Ry/au):

     atom    1 type  1   force =    -0.00000000   -0.00000000    0.00000000
     atom    2 type  1   force =     0.00000000    0.00000000    0.00000000
     The non-local contrib.  to forces
     atom    1 type  1   force =     0.00000000    0.00000000   -0.00000000
     atom    2 type  1   force =     0.00000000    0.00000000    0.00000000
     The ionic contribution  to forces
     atom    1 type  1   force =     0.00000000   -0.00000000   -0.00000000
     atom    2 type  1   force =    -0.00000000    0.00000000    0.00000000
     The local contribution  to forces
     atom    1 type  1   force =     0.00000000    0.00000000    0.00000000
     atom    2 type  1   force =    -0.00000000    0.00000000    0.00000000
     The core correction contribution to forces
     atom    1 type  1   force =     0.00000000    0.00000000    0.00000000
     atom    2 type  1   force =     0.00000000   -0.00000000   -0.00000000
     The Hubbard contrib.    to forces
     atom    1 type  1   force =     0.00000000    0.00000000    0.00000000
     atom    2 type  1   force =     0.00000000    0.00000000    0.00000000
     The SCF correction term to forces
     atom    1 type  1   force =     0.00000000    0.00000000   -0.00000000
     atom    2 type  1   force =    -0.00000000   -0.00000000    0.00000000

     Total force =     0.000000     Total SCF correction =     0.000000


     Computing stress (Cartesian axis) and pressure

          total   stress  (Ry/bohr**3)                   (kbar)     P=        3.42
   0.00002179  -0.00000000   0.00000000            3.21       -0.00        0.00
  -0.00000000   0.00002179   0.00000000           -0.00        3.21        0.00
   0.00000000   0.00000000   0.00002626            0.00        0.00        3.86


     Writing all to output data dir sc_vcrelax.out/scandium.save/

     init_run     :      7.82s CPU     11.00s WALL (       2 calls)
     electrons    :    167.07s CPU   4518.68s WALL (      10 calls)
     update_pot   :      6.29s CPU     12.84s WALL (       8 calls)
     forces       :      4.73s CPU      4.74s WALL (      10 calls)
     stress       :     13.52s CPU     13.67s WALL (      10 calls)

     Called by init_run:
     wfcinit      :      5.51s CPU      8.39s WALL (       2 calls)
     potinit      :      0.44s CPU      0.73s WALL (       2 calls)
     hinit0       :      1.32s CPU      1.33s WALL (       2 calls)

     Called by electrons:
     c_bands      :    137.06s CPU   4171.77s WALL (     193 calls)
     sum_band     :     19.40s CPU     19.77s WALL (     193 calls)
     v_of_rho     :      0.84s CPU      0.85s WALL (     201 calls)
     newd         :      2.60s CPU      2.62s WALL (     201 calls)
     PAW_pot      :      6.28s CPU      6.30s WALL (     209 calls)
     mix_rho      :      0.44s CPU      0.44s WALL (     193 calls)

     Called by c_bands:
     init_us_2    :      2.20s CPU      2.51s WALL (    9984 calls)
     init_us_2:cp :      2.17s CPU      2.49s WALL (    9984 calls)
     cegterg      :    129.20s CPU    131.81s WALL (    4634 calls)

     Called by *egterg:
     cdiaghg      :      8.01s CPU      8.17s WALL (   28071 calls)
     h_psi        :     98.25s CPU    100.41s WALL (   28361 calls)
     s_psi        :      5.94s CPU      6.04s WALL (   28361 calls)
     g_psi        :      0.54s CPU      0.55s WALL (   23679 calls)

     Called by h_psi:
     h_psi:calbec :      6.37s CPU      6.51s WALL (   28361 calls)
     vloc_psi     :     85.55s CPU     87.46s WALL (   28361 calls)
     add_vuspsi   :      5.94s CPU      6.06s WALL (   28361 calls)

     General routines
     calbec       :      8.68s CPU      8.88s WALL (   34385 calls)
     fft          :      1.07s CPU      1.10s WALL (    1276 calls)
     ffts         :      0.11s CPU      0.12s WALL (     394 calls)
     fftw         :     86.84s CPU     88.63s WALL (  531558 calls)
     interpolate  :      0.27s CPU      0.28s WALL (     201 calls)

     Parallel routines

     PWSCF        :   3m26.62s CPU      1h18m WALL


   This run was terminated on:  13:40: 3  21Jul2023            

=------------------------------------------------------------------------------=
   JOB DONE.
=------------------------------------------------------------------------------=
